MPI startup(): Warning: I_MPI_PMI_LIBRARY will be ignored since the hydra process manager was found
MPI startup(): Warning: I_MPI_PMI_LIBRARY will be ignored since the hydra process manager was found
MPI startup(): Warning: I_MPI_PMI_LIBRARY will be ignored since the hydra process manager was found
MPI startup(): Warning: I_MPI_PMI_LIBRARY will be ignored since the hydra process manager was found

     Program PWSCF v.7.0 starts on 25May2022 at  4:37: 9 

     This program is part of the open-source Quantum ESPRESSO suite
     for quantum simulation of materials; please cite
         "P. Giannozzi et al., J. Phys.:Condens. Matter 21 395502 (2009);
         "P. Giannozzi et al., J. Phys.:Condens. Matter 29 465901 (2017);
         "P. Giannozzi et al., J. Chem. Phys. 152 154105 (2020);
          URL http://www.quantum-espresso.org", 
     in publications or presentations arising from this work. More details at
     http://www.quantum-espresso.org/quote

     Parallel version (MPI & OpenMP), running on       4 processor cores
     Number of MPI processes:                 4
     Threads/MPI process:                     1

     MPI processes distributed on     1 nodes
     75624 MiB available memory on the printing compute node when the environment starts
 
     Reading input from nscf.in

     Current dimensions of program PWSCF are:
     Max number of different atomic species (ntypx) = 10
     Max number of k-points (npk) =  40000
     Max angular momentum in pseudopotentials (lmaxx) =  4

     Atomic positions and unit cell read from directory:
     ./temp/si.save/
     Atomic positions from file used, from input discarded
 
     Found identity + (  0.0000  0.0000 -0.5000) symmetry
     This is a supercell, fractional translations are disabled
     Message from routine setup:
     using ibrav=0 with symmetry is DISCOURAGED, use correct ibrav instead
 
     R & G space division:  proc/nbgrp/npool/nimage =       4
     Subspace diagonalization in iterative solution of the eigenvalue problem:
     a serial algorithm will be used

 
     Parallelization info
     --------------------
     sticks:   dense  smooth     PW     G-vecs:    dense   smooth      PW
     Min         256     256     78                10746    10746    1834
     Max         257     257     79                10750    10750    1838
     Sum        1027    1027    313                42993    42993    7343
 
     Using Slab Decomposition
 


     bravais-lattice index     =            0
     lattice parameter (alat)  =      10.2633  a.u.
     unit-cell volume          =     540.5409 (a.u.)^3
     number of atoms/cell      =            4
     number of atomic types    =            1
     number of electrons       =        16.00
     number of Kohn-Sham states=           36
     kinetic-energy cutoff     =      70.0000  Ry
     charge density cutoff     =     280.0000  Ry
     Exchange-correlation= PBE
                           (   1   4   3   4   0   0   0)

     celldm(1)=  10.263280  celldm(2)=   0.000000  celldm(3)=   0.000000
     celldm(4)=   0.000000  celldm(5)=   0.000000  celldm(6)=   0.000000

     crystal axes: (cart. coord. in units of alat)
               a(1) = (  -0.500000   0.000000   0.500000 )  
               a(2) = (   0.000000   0.500000   0.500000 )  
               a(3) = (  -1.000000   1.000000   0.000000 )  

     reciprocal axes: (cart. coord. in units 2 pi/alat)
               b(1) = ( -1.000000 -1.000000  1.000000 )  
               b(2) = (  1.000000  1.000000  1.000000 )  
               b(3) = ( -0.500000  0.500000 -0.500000 )  


     PseudoPot. # 1 for Si read from file:
     ~/PP/all/Si.dojo.sr.ONCVv0.4.pbe.standard.upf
     MD5 check sum: Not computed, couldn't open file
     Pseudo is Norm-conserving + core correction, Zval =  4.0
     Generated using ONCVPSP code by D. R. Hamann
     Using radial grid of 1510 points,  6 beta functions with: 
                l(1) =   0
                l(2) =   0
                l(3) =   1
                l(4) =   1
                l(5) =   2
                l(6) =   2

     atomic species   valence    mass     pseudopotential
        Si             4.00    28.08550     Si( 1.00)

      4 Sym. Ops., with inversion, found



   Cartesian axes

     site n.     atom                  positions (alat units)
         1           Si  tau(   1) = (  -0.1250000   0.1250000   0.1250000  )
         2           Si  tau(   2) = (   0.1250000  -0.1250000  -0.1250000  )
         3           Si  tau(   3) = (  -0.6250000   0.6250000   0.1250000  )
         4           Si  tau(   4) = (  -0.3750000   0.3750000  -0.1250000  )

     number of k points=    32
                       cart. coord. in units 2pi/alat
        k(    1) = (   0.0000000   0.0000000   0.0000000), wk =   0.0625000
        k(    2) = (  -0.2500000   0.2500000  -0.2500000), wk =   0.0625000
        k(    3) = (   0.2500000   0.2500000   0.2500000), wk =   0.0625000
        k(    4) = (   0.0000000   0.5000000   0.0000000), wk =   0.0625000
        k(    5) = (   0.5000000   0.5000000   0.5000000), wk =   0.0625000
        k(    6) = (   0.2500000   0.7500000   0.2500000), wk =   0.0625000
        k(    7) = (   0.7500000   0.7500000   0.7500000), wk =   0.0625000
        k(    8) = (   0.5000000   1.0000000   0.5000000), wk =   0.0625000
        k(    9) = (  -0.2500000  -0.2500000   0.2500000), wk =   0.0625000
        k(   10) = (  -0.5000000   0.0000000   0.0000000), wk =   0.0625000
        k(   11) = (   0.0000000   0.0000000   0.5000000), wk =   0.0625000
        k(   12) = (  -0.2500000   0.2500000   0.2500000), wk =   0.0625000
        k(   13) = (   0.2500000   0.2500000   0.7500000), wk =   0.0625000
        k(   14) = (   0.0000000   0.5000000   0.5000000), wk =   0.0625000
        k(   15) = (   0.5000000   0.5000000   1.0000000), wk =   0.0625000
        k(   16) = (   0.2500000   0.7500000   0.7500000), wk =   0.0625000
        k(   17) = (  -0.5000000  -0.5000000   0.5000000), wk =   0.0625000
        k(   18) = (  -0.7500000  -0.2500000   0.2500000), wk =   0.0625000
        k(   19) = (  -0.2500000  -0.2500000   0.7500000), wk =   0.0625000
        k(   20) = (  -0.5000000   0.0000000   0.5000000), wk =   0.0625000
        k(   21) = (   0.0000000   0.0000000   1.0000000), wk =   0.0625000
        k(   22) = (  -0.2500000   0.2500000   0.7500000), wk =   0.0625000
        k(   23) = (   0.2500000   0.2500000   1.2500000), wk =   0.0625000
        k(   24) = (   0.0000000   0.5000000   1.0000000), wk =   0.0625000
        k(   25) = (  -0.7500000  -0.7500000   0.7500000), wk =   0.0625000
        k(   26) = (  -1.0000000  -0.5000000   0.5000000), wk =   0.0625000
        k(   27) = (  -0.5000000  -0.5000000   1.0000000), wk =   0.0625000
        k(   28) = (  -0.7500000  -0.2500000   0.7500000), wk =   0.0625000
        k(   29) = (  -0.2500000  -0.2500000   1.2500000), wk =   0.0625000
        k(   30) = (  -0.5000000   0.0000000   1.0000000), wk =   0.0625000
        k(   31) = (   0.0000000   0.0000000   1.5000000), wk =   0.0625000
        k(   32) = (  -0.2500000   0.2500000   1.2500000), wk =   0.0625000

     Dense  grid:    42993 G-vectors     FFT dimensions: (  40,  40,  80)

     Estimated max dynamical RAM per process >      10.39 MB

     Estimated total dynamical RAM >      41.57 MB

     The potential is recalculated from file :
     ./temp/si.save/charge-density

     Starting wfcs are   16 randomized atomic wfcs +   20 random wfcs

     Band Structure Calculation
     Davidson diagonalization with overlap

     ethr =  6.25E-13,  avg # of iterations = 59.2

     total cpu time spent up to now is       32.4 secs

     End of band structure calculation

          k = 0.0000 0.0000 0.0000 (  5377 PWs)   bands (ev):

    -5.7354  -3.4061  -0.7450   5.0261   5.0261   6.2268   6.2268   6.2268
     7.7536   8.7829   8.7829   8.7829   9.5638   9.5647   9.5647  13.9550
    13.9550  13.9581  14.1876  16.7830  16.7830  17.4811  17.4811  17.4811
    17.5643  17.5643  17.5743  19.2160  21.6323  25.5577  26.2087  27.8432
    27.8432  27.9775  27.9775  29.2312

          k =-0.2500 0.2500-0.2500 (  5366 PWs)   bands (ev):

    -4.9363  -4.9363   2.2960   2.2960   5.4655   5.4655   5.4655   5.4655
     8.2448   8.2448   9.7273   9.7273   9.7273   9.7273  13.1295  13.1295
    13.4304  13.4304  13.4304  13.4304  15.2247  15.2247  18.0658  18.0658
    20.8582  20.8582  20.8582  20.8582  24.0828  24.0828  24.0828  24.0828
    24.1940  24.1940  26.3112  26.3112

          k = 0.2500 0.2500 0.2500 (  5363 PWs)   bands (ev):

    -4.9363  -3.0196  -0.1599   2.2960   2.6911   4.0199   5.4655   5.4655
     7.7454   8.2448   9.7273   9.7273  10.6756  11.9625  12.1429  13.1295
    13.4304  13.4304  15.2247  16.4288  16.7670  18.0658  18.3834  18.9257
    19.2586  20.8582  20.8582  23.0560  23.9331  24.0828  24.0828  24.1940
    24.8139  25.5871  25.7931  26.1397

          k = 0.0000 0.5000 0.0000 (  5358 PWs)   bands (ev):

    -4.6542  -3.6932   0.7419   2.4732   2.7040   4.3351   4.3351   4.8971
     7.3541   8.6722   9.3590  11.0085  11.3610  11.9778  11.9778  12.3618
    12.6844  14.2741  15.1638  15.8538  17.6596  18.8467  19.2364  19.2364
    19.4109  19.6967  19.9549  22.8936  23.2444  23.6386  23.6386  23.6486
    24.5504  24.8996  26.5531  27.1332

          k = 0.5000 0.5000 0.5000 (  5390 PWs)   bands (ev):

    -3.4061  -1.5940  -1.5940  -0.7450   3.3726   3.3726   5.0261   5.0261
     6.9366   6.9366   7.7536   9.5647   9.5647  13.9581  16.3129  16.3129
    16.7830  16.7830  17.2125  17.2125  17.5643  17.5643  17.5743  18.7559
    18.7559  19.2160  19.2607  19.2607  25.0494  25.0494  25.5577  25.9627
    25.9627  26.2087  26.4539  26.4539

          k = 0.2500 0.7500 0.2500 (  5360 PWs)   bands (ev):

    -3.0196  -3.0196  -0.1599  -0.1599   2.6911   2.6911   4.0199   4.0199
     7.7454   7.7454  10.6756  10.6756  11.9625  11.9625  12.1429  12.1429
    16.4288  16.4288  16.7670  16.7670  18.3834  18.3834  18.9257  18.9257
    19.2586  19.2586  23.0560  23.0560  23.9331  23.9331  24.8139  24.8139
    25.5871  25.5871  25.7931  25.7931

          k = 0.7500 0.7500 0.7500 (  5363 PWs)   bands (ev):

    -4.9363  -3.0196  -0.1599   2.2960   2.6911   4.0199   5.4655   5.4655
     7.7454   8.2448   9.7273   9.7273  10.6756  11.9625  12.1429  13.1295
    13.4304  13.4304  15.2247  16.4288  16.7670  18.0658  18.3834  18.9257
    19.2586  20.8582  20.8582  23.0560  23.9331  24.0828  24.0828  24.1940
    24.8139  25.5871  25.7931  26.1397

          k = 0.5000 1.0000 0.5000 (  5358 PWs)   bands (ev):

    -4.6542  -3.6932   0.7419   2.4732   2.7040   4.3351   4.3351   4.8971
     7.3541   8.6722   9.3590  11.0085  11.3610  11.9778  11.9778  12.3618
    12.6844  14.2741  15.1638  15.8538  17.6596  18.8467  19.2364  19.2364
    19.4109  19.6967  19.9549  22.8936  23.2444  23.6386  23.6386  23.6486
    24.5504  24.8996  26.5531  27.1332

          k =-0.2500-0.2500 0.2500 (  5363 PWs)   bands (ev):

    -4.9363  -3.0196  -0.1599   2.2960   2.6911   4.0199   5.4655   5.4655
     7.7454   8.2448   9.7273   9.7273  10.6756  11.9625  12.1429  13.1295
    13.4304  13.4304  15.2247  16.4288  16.7670  18.0658  18.3834  18.9257
    19.2586  20.8582  20.8582  23.0560  23.9331  24.0828  24.0828  24.1940
    24.8139  25.5871  25.7931  26.1397

          k =-0.5000 0.0000 0.0000 (  5358 PWs)   bands (ev):

    -4.6542  -3.6932   0.7419   2.4732   2.7040   4.3351   4.3351   4.8971
     7.3541   8.6722   9.3590  11.0085  11.3610  11.9778  11.9778  12.3618
    12.6844  14.2741  15.1638  15.8538  17.6596  18.8467  19.2364  19.2364
    19.4109  19.6967  19.9549  22.8936  23.2444  23.6386  23.6386  23.6486
    24.5504  24.8996  26.5531  27.1332

          k = 0.0000 0.0000 0.5000 (  5358 PWs)   bands (ev):

    -4.6542  -3.6932   0.7419   2.4732   2.7040   4.3351   4.3351   4.8971
     7.3541   8.6722   9.3590  11.0085  11.3610  11.9778  11.9778  12.3618
    12.6844  14.2741  15.1638  15.8538  17.6596  18.8467  19.2364  19.2364
    19.4109  19.6967  19.9549  22.8936  23.2444  23.6386  23.6386  23.6486
    24.5504  24.8996  26.5531  27.1332

          k =-0.2500 0.2500 0.2500 (  5363 PWs)   bands (ev):

    -4.9363  -3.0196  -0.1599   2.2960   2.6911   4.0199   5.4655   5.4655
     7.7454   8.2448   9.7273   9.7273  10.6756  11.9625  12.1429  13.1295
    13.4304  13.4304  15.2247  16.4288  16.7670  18.0658  18.3834  18.9257
    19.2586  20.8582  20.8582  23.0560  23.9331  24.0828  24.0828  24.1940
    24.8139  25.5871  25.7931  26.1397

          k = 0.2500 0.2500 0.7500 (  5360 PWs)   bands (ev):

    -3.0196  -3.0196  -0.1599  -0.1599   2.6911   2.6911   4.0199   4.0199
     7.7454   7.7454  10.6756  10.6756  11.9625  11.9625  12.1429  12.1429
    16.4288  16.4288  16.7670  16.7670  18.3834  18.3834  18.9257  18.9257
    19.2586  19.2586  23.0560  23.0560  23.9331  23.9331  24.8139  24.8139
    25.5871  25.5871  25.7931  25.7931

          k = 0.0000 0.5000 0.5000 (  5332 PWs)   bands (ev):

    -3.6932  -1.4305  -1.4305   0.7419   2.3736   2.3736   2.4732   4.8971
     8.6722  10.5000  10.5000  11.0085  11.2206  11.2206  11.3610  12.3618
    12.6844  15.8538  16.7977  16.7977  18.8467  19.2578  19.2578  19.4109
    19.6967  22.6678  22.6678  22.8936  23.2444  23.6486  24.8239  24.8239
    24.8996  25.0981  25.0981  25.9937

          k = 0.5000 0.5000 1.0000 (  5332 PWs)   bands (ev):

    -3.6932  -1.4305  -1.4305   0.7419   2.3736   2.3736   2.4732   4.8971
     8.6722  10.5000  10.5000  11.0085  11.2206  11.2206  11.3610  12.3618
    12.6844  15.8538  16.7977  16.7977  18.8467  19.2578  19.2578  19.4109
    19.6967  22.6678  22.6678  22.8936  23.2444  23.6486  24.8239  24.8239
    24.8996  25.0981  25.0981  25.9937

          k = 0.2500 0.7500 0.7500 (  5360 PWs)   bands (ev):

    -3.0196  -3.0196  -0.1599  -0.1599   2.6911   2.6911   4.0199   4.0199
     7.7454   7.7454  10.6756  10.6756  11.9625  11.9625  12.1429  12.1429
    16.4288  16.4288  16.7670  16.7670  18.3834  18.3834  18.9257  18.9257
    19.2586  19.2586  23.0560  23.0560  23.9331  23.9331  24.8139  24.8139
    25.5871  25.5871  25.7931  25.7931

          k =-0.5000-0.5000 0.5000 (  5390 PWs)   bands (ev):

    -3.4061  -1.5940  -1.5940  -0.7450   3.3726   3.3726   5.0261   5.0261
     6.9366   6.9366   7.7536   9.5647   9.5647  13.9581  16.3129  16.3129
    16.7830  16.7830  17.2125  17.2125  17.5643  17.5643  17.5743  18.7559
    18.7559  19.2160  19.2607  19.2607  25.0494  25.0494  25.5577  25.9627
    25.9627  26.2087  26.4539  26.4539

          k =-0.7500-0.2500 0.2500 (  5360 PWs)   bands (ev):

    -3.0196  -3.0196  -0.1599  -0.1599   2.6911   2.6911   4.0199   4.0199
     7.7454   7.7454  10.6756  10.6756  11.9625  11.9625  12.1429  12.1429
    16.4288  16.4288  16.7670  16.7670  18.3834  18.3834  18.9257  18.9257
    19.2586  19.2586  23.0560  23.0560  23.9331  23.9331  24.8139  24.8139
    25.5871  25.5871  25.7931  25.7931

          k =-0.2500-0.2500 0.7500 (  5360 PWs)   bands (ev):

    -3.0196  -3.0196  -0.1599  -0.1599   2.6911   2.6911   4.0199   4.0199
     7.7454   7.7454  10.6756  10.6756  11.9625  11.9625  12.1429  12.1429
    16.4288  16.4288  16.7670  16.7670  18.3834  18.3834  18.9257  18.9257
    19.2586  19.2586  23.0560  23.0560  23.9331  23.9331  24.8139  24.8139
    25.5871  25.5871  25.7931  25.7931

          k =-0.5000 0.0000 0.5000 (  5332 PWs)   bands (ev):

    -3.6932  -1.4305  -1.4305   0.7419   2.3736   2.3736   2.4732   4.8971
     8.6722  10.5000  10.5000  11.0085  11.2206  11.2206  11.3610  12.3618
    12.6844  15.8538  16.7977  16.7977  18.8467  19.2578  19.2578  19.4109
    19.6967  22.6678  22.6678  22.8936  23.2444  23.6486  24.8239  24.8239
    24.8996  25.0981  25.0981  25.9937

          k = 0.0000 0.0000 1.0000 (  5390 PWs)   bands (ev):

    -3.4061  -1.5940  -1.5940  -0.7450   3.3726   3.3726   5.0261   5.0261
     6.9366   6.9366   7.7536   9.5647   9.5647  13.9581  16.3129  16.3129
    16.7830  16.7830  17.2125  17.2125  17.5643  17.5643  17.5743  18.7559
    18.7559  19.2160  19.2607  19.2607  25.0494  25.0494  25.5577  25.9627
    25.9627  26.2087  26.4539  26.4539

          k =-0.2500 0.2500 0.7500 (  5360 PWs)   bands (ev):

    -3.0196  -3.0196  -0.1599  -0.1599   2.6911   2.6911   4.0199   4.0199
     7.7454   7.7454  10.6756  10.6756  11.9625  11.9625  12.1429  12.1429
    16.4288  16.4288  16.7670  16.7670  18.3834  18.3834  18.9257  18.9257
    19.2586  19.2586  23.0560  23.0560  23.9331  23.9331  24.8139  24.8139
    25.5871  25.5871  25.7931  25.7931

          k = 0.2500 0.2500 1.2500 (  5360 PWs)   bands (ev):

    -3.0196  -3.0196  -0.1599  -0.1599   2.6911   2.6911   4.0199   4.0199
     7.7454   7.7454  10.6756  10.6756  11.9625  11.9625  12.1429  12.1429
    16.4288  16.4288  16.7670  16.7670  18.3834  18.3834  18.9257  18.9257
    19.2586  19.2586  23.0560  23.0560  23.9331  23.9331  24.8139  24.8139
    25.5871  25.5871  25.7931  25.7931

          k = 0.0000 0.5000 1.0000 (  5332 PWs)   bands (ev):

    -3.6932  -1.4305  -1.4305   0.7419   2.3736   2.3736   2.4732   4.8971
     8.6722  10.5000  10.5000  11.0085  11.2206  11.2206  11.3610  12.3618
    12.6844  15.8538  16.7977  16.7977  18.8467  19.2578  19.2578  19.4109
    19.6967  22.6678  22.6678  22.8936  23.2444  23.6486  24.8239  24.8239
    24.8996  25.0981  25.0981  25.9937

          k =-0.7500-0.7500 0.7500 (  5363 PWs)   bands (ev):

    -4.9363  -3.0196  -0.1599   2.2960   2.6911   4.0199   5.4655   5.4655
     7.7454   8.2448   9.7273   9.7273  10.6756  11.9625  12.1429  13.1295
    13.4304  13.4304  15.2247  16.4288  16.7670  18.0658  18.3834  18.9257
    19.2586  20.8582  20.8582  23.0560  23.9331  24.0828  24.0828  24.1940
    24.8139  25.5871  25.7931  26.1397

          k =-1.0000-0.5000 0.5000 (  5358 PWs)   bands (ev):

    -4.6542  -3.6932   0.7419   2.4732   2.7040   4.3351   4.3351   4.8971
     7.3541   8.6722   9.3590  11.0085  11.3610  11.9778  11.9778  12.3618
    12.6844  14.2741  15.1638  15.8538  17.6596  18.8467  19.2364  19.2364
    19.4109  19.6967  19.9549  22.8936  23.2444  23.6386  23.6386  23.6486
    24.5504  24.8996  26.5531  27.1332

          k =-0.5000-0.5000 1.0000 (  5332 PWs)   bands (ev):

    -3.6932  -1.4305  -1.4305   0.7419   2.3736   2.3736   2.4732   4.8971
     8.6722  10.5000  10.5000  11.0085  11.2206  11.2206  11.3610  12.3618
    12.6844  15.8538  16.7977  16.7977  18.8467  19.2578  19.2578  19.4109
    19.6967  22.6678  22.6678  22.8936  23.2444  23.6486  24.8239  24.8239
    24.8996  25.0981  25.0981  25.9937

          k =-0.7500-0.2500 0.7500 (  5360 PWs)   bands (ev):

    -3.0196  -3.0196  -0.1599  -0.1599   2.6911   2.6911   4.0199   4.0199
     7.7454   7.7454  10.6756  10.6756  11.9625  11.9625  12.1429  12.1429
    16.4288  16.4288  16.7670  16.7670  18.3834  18.3834  18.9257  18.9257
    19.2586  19.2586  23.0560  23.0560  23.9331  23.9331  24.8139  24.8139
    25.5871  25.5871  25.7931  25.7931

          k =-0.2500-0.2500 1.2500 (  5360 PWs)   bands (ev):

    -3.0196  -3.0196  -0.1599  -0.1599   2.6911   2.6911   4.0199   4.0199
     7.7454   7.7454  10.6756  10.6756  11.9625  11.9625  12.1429  12.1429
    16.4288  16.4288  16.7670  16.7670  18.3834  18.3834  18.9257  18.9257
    19.2586  19.2586  23.0560  23.0560  23.9331  23.9331  24.8139  24.8139
    25.5871  25.5871  25.7931  25.7931

          k =-0.5000 0.0000 1.0000 (  5332 PWs)   bands (ev):

    -3.6932  -1.4305  -1.4305   0.7419   2.3736   2.3736   2.4732   4.8971
     8.6722  10.5000  10.5000  11.0085  11.2206  11.2206  11.3610  12.3618
    12.6844  15.8538  16.7977  16.7977  18.8467  19.2578  19.2578  19.4109
    19.6967  22.6678  22.6678  22.8936  23.2444  23.6486  24.8239  24.8239
    24.8996  25.0981  25.0981  25.9937

          k = 0.0000 0.0000 1.5000 (  5358 PWs)   bands (ev):

    -4.6542  -3.6932   0.7419   2.4732   2.7040   4.3351   4.3351   4.8971
     7.3541   8.6722   9.3590  11.0085  11.3610  11.9778  11.9778  12.3618
    12.6844  14.2741  15.1638  15.8538  17.6596  18.8467  19.2364  19.2364
    19.4109  19.6967  19.9549  22.8936  23.2444  23.6386  23.6386  23.6486
    24.5504  24.8996  26.5531  27.1332

          k =-0.2500 0.2500 1.2500 (  5363 PWs)   bands (ev):

    -4.9363  -3.0196  -0.1599   2.2960   2.6911   4.0199   5.4655   5.4655
     7.7454   8.2448   9.7273   9.7273  10.6756  11.9625  12.1429  13.1295
    13.4304  13.4304  15.2247  16.4288  16.7670  18.0658  18.3834  18.9257
    19.2586  20.8582  20.8582  23.0560  23.9331  24.0828  24.0828  24.1940
    24.8139  25.5871  25.7931  26.1397

     Writing all to output data dir ./temp/si.save/
 
     init_run     :      0.20s CPU      0.22s WALL (       1 calls)
     electrons    :     31.32s CPU     31.67s WALL (       1 calls)

     Called by init_run:
     wfcinit      :      0.00s CPU      0.00s WALL (       1 calls)
     potinit      :      0.02s CPU      0.03s WALL (       1 calls)
     hinit0       :      0.05s CPU      0.06s WALL (       1 calls)

     Called by electrons:
     c_bands      :     31.32s CPU     31.67s WALL (       1 calls)
     v_of_rho     :      0.02s CPU      0.02s WALL (       1 calls)

     Called by c_bands:
     init_us_2    :      0.01s CPU      0.02s WALL (      32 calls)
     init_us_2:cp :      0.01s CPU      0.02s WALL (      32 calls)
     cegterg      :     30.32s CPU     30.64s WALL (     107 calls)

     Called by *egterg:
     cdiaghg      :      2.81s CPU      2.83s WALL (    1928 calls)
     h_psi        :     23.06s CPU     23.35s WALL (    2035 calls)
     g_psi        :      0.39s CPU      0.40s WALL (    1896 calls)

     Called by h_psi:
     h_psi:calbec :      1.00s CPU      1.01s WALL (    2035 calls)
     vloc_psi     :     21.12s CPU     21.39s WALL (    2035 calls)
     add_vuspsi   :      0.85s CPU      0.86s WALL (    2035 calls)

     General routines
     calbec       :      0.99s CPU      1.01s WALL (    2035 calls)
     fft          :      0.01s CPU      0.02s WALL (      11 calls)
     fftw         :     18.61s CPU     18.84s WALL (   77836 calls)
     davcio       :      0.02s CPU      0.03s WALL (      64 calls)
 
     Parallel routines
 
     PWSCF        :     32.07s CPU     32.69s WALL

 
   This run was terminated on:   4:37:41  25May2022            

=------------------------------------------------------------------------------=
   JOB DONE.
=------------------------------------------------------------------------------=
