MPI startup(): Warning: I_MPI_PMI_LIBRARY will be ignored since the hydra process manager was found
MPI startup(): Warning: I_MPI_PMI_LIBRARY will be ignored since the hydra process manager was found
MPI startup(): Warning: I_MPI_PMI_LIBRARY will be ignored since the hydra process manager was found
MPI startup(): Warning: I_MPI_PMI_LIBRARY will be ignored since the hydra process manager was found

     Program PW2WANNIER v.7.0 starts on 25May2022 at  4:37:45 

     This program is part of the open-source Quantum ESPRESSO suite
     for quantum simulation of materials; please cite
         "P. Giannozzi et al., J. Phys.:Condens. Matter 21 395502 (2009);
         "P. Giannozzi et al., J. Phys.:Condens. Matter 29 465901 (2017);
         "P. Giannozzi et al., J. Chem. Phys. 152 154105 (2020);
          URL http://www.quantum-espresso.org", 
     in publications or presentations arising from this work. More details at
     http://www.quantum-espresso.org/quote

     Parallel version (MPI & OpenMP), running on       4 processor cores
     Number of MPI processes:                 4
     Threads/MPI process:                     1

     MPI processes distributed on     1 nodes
     R & G space division:  proc/nbgrp/npool/nimage =       4
     75408 MiB available memory on the printing compute node when the environment starts
 
 
  Reading nscf_save data

     Reading xml data from directory:

     temp/si.save/

     IMPORTANT: XC functional enforced from input :
     Exchange-correlation= PBE
                           (   1   4   3   4   0   0   0)
     Any further DFT definition will be discarded
     Please, verify this is what you really want

 
     Parallelization info
     --------------------
     sticks:   dense  smooth     PW     G-vecs:    dense   smooth      PW
     Min         256     256     78                10746    10746    1834
     Max         257     257     79                10750    10750    1838
     Sum        1027    1027    313                42993    42993    7343
 
     Using Slab Decomposition
 
     Reading collected, re-writing distributed wavefunctions
 
  Spin CASE ( default = unpolarized )
 
  Wannier mode is: standalone     
 
  -----------------
  *** Reading nnkp 
  -----------------
 
  Checking info from wannier.nnkp file
 
  - Real lattice is ok
  - Reciprocal lattice is ok
  - K-points are ok
  - Number of wannier functions is ok ( 16)
  - All guiding functions are given 
 
 Projections:
   -0.125000    0.125000    0.125000 -3  1  1    1.000000
   -0.125000    0.125000    0.125000 -3  2  1    1.000000
   -0.125000    0.125000    0.125000 -3  3  1    1.000000
   -0.125000    0.125000    0.125000 -3  4  1    1.000000
    0.125000   -0.125000   -0.125000 -3  1  1    1.000000
    0.125000   -0.125000   -0.125000 -3  2  1    1.000000
    0.125000   -0.125000   -0.125000 -3  3  1    1.000000
    0.125000   -0.125000   -0.125000 -3  4  1    1.000000
   -0.625000    0.625000    0.125000 -3  1  1    1.000000
   -0.625000    0.625000    0.125000 -3  2  1    1.000000
   -0.625000    0.625000    0.125000 -3  3  1    1.000000
   -0.625000    0.625000    0.125000 -3  4  1    1.000000
   -0.375000    0.375000   -0.125000 -3  1  1    1.000000
   -0.375000    0.375000   -0.125000 -3  2  1    1.000000
   -0.375000    0.375000   -0.125000 -3  3  1    1.000000
   -0.375000    0.375000   -0.125000 -3  4  1    1.000000
 
  Reading data about k-point neighbours 
 
  All neighbours are found 
 
  Opening pp-files 
 
 
  --------------------------
  *** Compute  A projections
  --------------------------
 
  AMN: iknum =       32
       1       2       3       4       5       6       7       8       9      10
      11      12      13      14      15      16      17      18      19      20
      21      22      23      24      25      26      27      28      29      30
      31      32

  AMN calculated
 
  ---------------
  *** Compute  M 
  ---------------
 
  MMN: iknum =       32
       1       2       3       4       5       6       7       8       9      10
      11      12      13      14      15      16      17      18      19      20
      21      22      23      24      25      26      27      28      29      30
      31      32

  MMN calculated
 
  -----------------------------------
  *** Orbital terms are not computed 
  -----------------------------------
 
  -----------------------------------
  *** SHC terms are not computed 
  -----------------------------------
 
  ----------------
  *** Write bands 
  ----------------
 
 
  -----------------------------
  *** Plot info is not printed 
  -----------------------------
 
  -----------------------------
  *** Parity info is not printed 
  -----------------------------
 
  ------------
  *** Stop pp 
  ------------
 
 
     init_pw2wan  :      0.26s CPU      0.31s WALL (       1 calls)
     compute_amn  :     11.11s CPU     11.12s WALL (       1 calls)
     compute_mmn  :      2.95s CPU      3.03s WALL (       1 calls)
 
     PW2WANNIER   :     14.32s CPU     14.46s WALL

 
   This run was terminated on:   4:38: 0  25May2022            

=------------------------------------------------------------------------------=
   JOB DONE.
=------------------------------------------------------------------------------=
 
