MPI startup(): Warning: I_MPI_PMI_LIBRARY will be ignored since the hydra process manager was found
MPI startup(): Warning: I_MPI_PMI_LIBRARY will be ignored since the hydra process manager was found
MPI startup(): Warning: I_MPI_PMI_LIBRARY will be ignored since the hydra process manager was found
MPI startup(): Warning: I_MPI_PMI_LIBRARY will be ignored since the hydra process manager was found

     Program PWSCF v.7.0 starts on 25May2022 at  4:34:43 

     This program is part of the open-source Quantum ESPRESSO suite
     for quantum simulation of materials; please cite
         "P. Giannozzi et al., J. Phys.:Condens. Matter 21 395502 (2009);
         "P. Giannozzi et al., J. Phys.:Condens. Matter 29 465901 (2017);
         "P. Giannozzi et al., J. Chem. Phys. 152 154105 (2020);
          URL http://www.quantum-espresso.org", 
     in publications or presentations arising from this work. More details at
     http://www.quantum-espresso.org/quote

     Parallel version (MPI & OpenMP), running on       4 processor cores
     Number of MPI processes:                 4
     Threads/MPI process:                     1

     MPI processes distributed on     1 nodes
     75895 MiB available memory on the printing compute node when the environment starts
 
     Reading input from scf.in

     Current dimensions of program PWSCF are:
     Max number of different atomic species (ntypx) = 10
     Max number of k-points (npk) =  40000
     Max angular momentum in pseudopotentials (lmaxx) =  4
     Found identity + (  0.0000  0.0000 -0.5000) symmetry
     This is a supercell, fractional translations are disabled
     Message from routine setup:
     using ibrav=0 with symmetry is DISCOURAGED, use correct ibrav instead
 
     R & G space division:  proc/nbgrp/npool/nimage =       4
     Subspace diagonalization in iterative solution of the eigenvalue problem:
     a serial algorithm will be used

 
     Parallelization info
     --------------------
     sticks:   dense  smooth     PW     G-vecs:    dense   smooth      PW
     Min         256     256     75                10746    10746    1724
     Max         257     257     76                10750    10750    1729
     Sum        1027    1027    301                42993    42993    6905
 
     Using Slab Decomposition
 


     bravais-lattice index     =            0
     lattice parameter (alat)  =      10.2633  a.u.
     unit-cell volume          =     540.5409 (a.u.)^3
     number of atoms/cell      =            4
     number of atomic types    =            1
     number of electrons       =        16.00
     number of Kohn-Sham states=            8
     kinetic-energy cutoff     =      70.0000  Ry
     charge density cutoff     =     280.0000  Ry
     scf convergence threshold =      1.0E-15
     mixing beta               =       0.7000
     number of iterations used =            8  plain     mixing
     Exchange-correlation= PBE
                           (   1   4   3   4   0   0   0)

     celldm(1)=  10.263280  celldm(2)=   0.000000  celldm(3)=   0.000000
     celldm(4)=   0.000000  celldm(5)=   0.000000  celldm(6)=   0.000000

     crystal axes: (cart. coord. in units of alat)
               a(1) = (  -0.500000   0.000000   0.500000 )  
               a(2) = (   0.000000   0.500000   0.500000 )  
               a(3) = (  -1.000000   1.000000   0.000000 )  

     reciprocal axes: (cart. coord. in units 2 pi/alat)
               b(1) = ( -1.000000 -1.000000  1.000000 )  
               b(2) = (  1.000000  1.000000  1.000000 )  
               b(3) = ( -0.500000  0.500000 -0.500000 )  


     PseudoPot. # 1 for Si read from file:
     ~/PP/all/Si.dojo.sr.ONCVv0.4.pbe.standard.upf
     MD5 check sum: Not computed, couldn't open file
     Pseudo is Norm-conserving + core correction, Zval =  4.0
     Generated using ONCVPSP code by D. R. Hamann
     Using radial grid of 1510 points,  6 beta functions with: 
                l(1) =   0
                l(2) =   0
                l(3) =   1
                l(4) =   1
                l(5) =   2
                l(6) =   2

     atomic species   valence    mass     pseudopotential
        Si             4.00    28.08550     Si( 1.00)

      4 Sym. Ops., with inversion, found



   Cartesian axes

     site n.     atom                  positions (alat units)
         1           Si  tau(   1) = (  -0.1250000   0.1250000   0.1250000  )
         2           Si  tau(   2) = (   0.1250000  -0.1250000  -0.1250000  )
         3           Si  tau(   3) = (  -0.6250000   0.6250000   0.1250000  )
         4           Si  tau(   4) = (  -0.3750000   0.3750000  -0.1250000  )

     number of k points=   372

     Number of k-points >= 100: set verbosity='high' to print them.

     Dense  grid:    42993 G-vectors     FFT dimensions: (  40,  40,  80)

     Estimated max dynamical RAM per process >      70.98 MB

     Estimated total dynamical RAM >     283.93 MB

     Initial potential from superposition of free atoms

     starting charge      15.9975, renormalised to      16.0000
     Starting wfcs are   16 randomized atomic wfcs

     total cpu time spent up to now is        4.9 secs

     Self-consistent Calculation

     iteration #  1     ecut=    70.00 Ry     beta= 0.70
     Davidson diagonalization with overlap
     ethr =  1.00E-02,  avg # of iterations =  2.0

     Threshold (ethr) on eigenvalues was too large:
     Diagonalizing with lowered threshold

     Davidson diagonalization with overlap
     ethr =  5.68E-04,  avg # of iterations =  2.0

     total cpu time spent up to now is       24.2 secs

     total energy              =     -33.84523750 Ry
     estimated scf accuracy    <       0.10734958 Ry

     iteration #  2     ecut=    70.00 Ry     beta= 0.70
     Davidson diagonalization with overlap
     ethr =  6.71E-04,  avg # of iterations =  1.0

     total cpu time spent up to now is       31.9 secs

     total energy              =     -33.84839676 Ry
     estimated scf accuracy    <       0.00579657 Ry

     iteration #  3     ecut=    70.00 Ry     beta= 0.70
     Davidson diagonalization with overlap
     ethr =  3.62E-05,  avg # of iterations =  2.5

     total cpu time spent up to now is       41.8 secs

     total energy              =     -33.84965511 Ry
     estimated scf accuracy    <       0.00012654 Ry

     iteration #  4     ecut=    70.00 Ry     beta= 0.70
     Davidson diagonalization with overlap
     ethr =  7.91E-07,  avg # of iterations =  5.5

     total cpu time spent up to now is       55.0 secs

     total energy              =     -33.84981839 Ry
     estimated scf accuracy    <       0.00000047 Ry

     iteration #  5     ecut=    70.00 Ry     beta= 0.70
     Davidson diagonalization with overlap
     ethr =  2.96E-09,  avg # of iterations =  7.1

     total cpu time spent up to now is       70.9 secs

     total energy              =     -33.84982160 Ry
     estimated scf accuracy    <       0.00000002 Ry

     iteration #  6     ecut=    70.00 Ry     beta= 0.70
     Davidson diagonalization with overlap
     ethr =  1.26E-10,  avg # of iterations =  3.8

     total cpu time spent up to now is       81.6 secs

     total energy              =     -33.84982161 Ry
     estimated scf accuracy    <          2.1E-09 Ry

     iteration #  7     ecut=    70.00 Ry     beta= 0.70
     Davidson diagonalization with overlap
     ethr =  1.29E-11,  avg # of iterations =  3.5

     total cpu time spent up to now is       91.9 secs

     total energy              =     -33.84982161 Ry
     estimated scf accuracy    <          1.6E-11 Ry

     iteration #  8     ecut=    70.00 Ry     beta= 0.70
     Davidson diagonalization with overlap
     ethr =  1.00E-13,  avg # of iterations =  6.7

     total cpu time spent up to now is      106.9 secs

     total energy              =     -33.84982161 Ry
     estimated scf accuracy    <          1.1E-11 Ry

     iteration #  9     ecut=    70.00 Ry     beta= 0.70
     Davidson diagonalization with overlap
     ethr =  1.00E-13,  avg # of iterations =  1.9

     total cpu time spent up to now is      115.2 secs

     total energy              =     -33.84982161 Ry
     estimated scf accuracy    <          5.4E-14 Ry

     iteration # 10     ecut=    70.00 Ry     beta= 0.70
     Davidson diagonalization with overlap
     ethr =  1.00E-13,  avg # of iterations =  1.0

     total cpu time spent up to now is      123.0 secs

     total energy              =     -33.84982161 Ry
     estimated scf accuracy    <          8.5E-14 Ry

     iteration # 11     ecut=    70.00 Ry     beta= 0.70
     Davidson diagonalization with overlap
     ethr =  1.00E-13,  avg # of iterations =  1.0

     total cpu time spent up to now is      130.7 secs

     total energy              =     -33.84982161 Ry
     estimated scf accuracy    <          1.5E-14 Ry

     iteration # 12     ecut=    70.00 Ry     beta= 0.70
     Davidson diagonalization with overlap
     ethr =  1.00E-13,  avg # of iterations =  1.0

     total cpu time spent up to now is      138.4 secs

     End of self-consistent calculation

     Number of k-points >= 100: set verbosity='high' to print the bands.

     highest occupied level (ev):     6.2268

!    total energy              =     -33.84982161 Ry
     estimated scf accuracy    <          8.3E-16 Ry

     The total energy is the sum of the following terms:
     one-electron contribution =       9.91741849 Ry
     hartree contribution      =       2.19082425 Ry
     xc contribution           =     -12.36694388 Ry
     ewald contribution        =     -33.59112046 Ry

     convergence has been achieved in  12 iterations

     Forces acting on atoms (cartesian axes, Ry/au):

     atom    1 type  1   force =     0.00000000   -0.00000000    0.00000000
     atom    2 type  1   force =    -0.00000000    0.00000000   -0.00000000
     atom    3 type  1   force =    -0.00000000    0.00000000   -0.00000000
     atom    4 type  1   force =     0.00000000   -0.00000000    0.00000000

     Total force =     0.000000     Total SCF correction =     0.000000
     SCF correction compared to forces is large: reduce conv_thr to get better values


     Computing stress (Cartesian axis) and pressure

          total   stress  (Ry/bohr**3)                   (kbar)     P=       19.22
   0.00013062   0.00000000   0.00000000           19.22        0.00        0.00
   0.00000000   0.00013062  -0.00000000            0.00       19.22       -0.00
   0.00000000  -0.00000000   0.00013062            0.00       -0.00       19.22


     Writing all to output data dir ./temp/si.save/
 
     init_run     :      4.78s CPU      4.86s WALL (       1 calls)
     electrons    :    131.38s CPU    133.49s WALL (       1 calls)
     forces       :      2.21s CPU      2.22s WALL (       1 calls)
     stress       :      3.96s CPU      3.97s WALL (       1 calls)

     Called by init_run:
     wfcinit      :      4.50s CPU      4.57s WALL (       1 calls)
     potinit      :      0.04s CPU      0.04s WALL (       1 calls)
     hinit0       :      0.05s CPU      0.06s WALL (       1 calls)

     Called by electrons:
     c_bands      :    116.88s CPU    118.77s WALL (      13 calls)
     sum_band     :     14.30s CPU     14.51s WALL (      13 calls)
     v_of_rho     :      0.19s CPU      0.19s WALL (      13 calls)
     mix_rho      :      0.03s CPU      0.03s WALL (      13 calls)

     Called by c_bands:
     init_us_2    :      4.40s CPU      4.48s WALL (   10788 calls)
     init_us_2:cp :      4.37s CPU      4.46s WALL (   10788 calls)
     cegterg      :     84.69s CPU     86.47s WALL (    4836 calls)

     Called by *egterg:
     cdiaghg      :      1.60s CPU      1.64s WALL (   18989 calls)
     h_psi        :     79.93s CPU     81.61s WALL (   19733 calls)
     g_psi        :      0.96s CPU      0.97s WALL (   14525 calls)

     Called by h_psi:
     h_psi:calbec :      4.61s CPU      4.68s WALL (   19733 calls)
     vloc_psi     :     71.44s CPU     72.99s WALL (   19733 calls)
     add_vuspsi   :      3.52s CPU      3.59s WALL (   19733 calls)

     General routines
     calbec       :      5.36s CPU      5.45s WALL (   21593 calls)
     fft          :      0.08s CPU      0.08s WALL (     155 calls)
     ffts         :      0.01s CPU      0.01s WALL (      13 calls)
     fftw         :     72.92s CPU     74.02s WALL (  294014 calls)
 
     Parallel routines
 
     PWSCF        :   2m22.64s CPU   2m25.08s WALL

 
   This run was terminated on:   4:37: 8  25May2022            

=------------------------------------------------------------------------------=
   JOB DONE.
=------------------------------------------------------------------------------=
