File written on 25May2022 at 04:37:42 

calc_only_A  :  F

begin real_lattice
  -2.7155469   0.0000000   2.7155469
   0.0000000   2.7155469   2.7155469
  -5.4310939   5.4310939   0.0000000
end real_lattice

begin recip_lattice
  -1.1568913  -1.1568913   1.1568913
   1.1568913   1.1568913   1.1568913
  -0.5784457   0.5784457  -0.5784457
end recip_lattice

begin kpoints
    32
    0.00000000    0.00000000    0.00000000
    0.00000000    0.00000000    0.50000000
    0.00000000    0.25000000    0.00000000
    0.00000000    0.25000000    0.50000000
    0.00000000    0.50000000    0.00000000
    0.00000000    0.50000000    0.50000000
    0.00000000    0.75000000    0.00000000
    0.00000000    0.75000000    0.50000000
    0.25000000    0.00000000    0.00000000
    0.25000000    0.00000000    0.50000000
    0.25000000    0.25000000    0.00000000
    0.25000000    0.25000000    0.50000000
    0.25000000    0.50000000    0.00000000
    0.25000000    0.50000000    0.50000000
    0.25000000    0.75000000    0.00000000
    0.25000000    0.75000000    0.50000000
    0.50000000    0.00000000    0.00000000
    0.50000000    0.00000000    0.50000000
    0.50000000    0.25000000    0.00000000
    0.50000000    0.25000000    0.50000000
    0.50000000    0.50000000    0.00000000
    0.50000000    0.50000000    0.50000000
    0.50000000    0.75000000    0.00000000
    0.50000000    0.75000000    0.50000000
    0.75000000    0.00000000    0.00000000
    0.75000000    0.00000000    0.50000000
    0.75000000    0.25000000    0.00000000
    0.75000000    0.25000000    0.50000000
    0.75000000    0.50000000    0.00000000
    0.75000000    0.50000000    0.50000000
    0.75000000    0.75000000    0.00000000
    0.75000000    0.75000000    0.50000000
end kpoints

begin projections
    16
   0.12500    0.12500    0.06250    -3  1  1
    0.0000000  0.0000000  1.0000000   1.0000000  0.0000000  0.0000000    1.00
   0.12500    0.12500    0.06250    -3  2  1
    0.0000000  0.0000000  1.0000000   1.0000000  0.0000000  0.0000000    1.00
   0.12500    0.12500    0.06250    -3  3  1
    0.0000000  0.0000000  1.0000000   1.0000000  0.0000000  0.0000000    1.00
   0.12500    0.12500    0.06250    -3  4  1
    0.0000000  0.0000000  1.0000000   1.0000000  0.0000000  0.0000000    1.00
  -0.12500   -0.12500   -0.06250    -3  1  1
    0.0000000  0.0000000  1.0000000   1.0000000  0.0000000  0.0000000    1.00
  -0.12500   -0.12500   -0.06250    -3  2  1
    0.0000000  0.0000000  1.0000000   1.0000000  0.0000000  0.0000000    1.00
  -0.12500   -0.12500   -0.06250    -3  3  1
    0.0000000  0.0000000  1.0000000   1.0000000  0.0000000  0.0000000    1.00
  -0.12500   -0.12500   -0.06250    -3  4  1
    0.0000000  0.0000000  1.0000000   1.0000000  0.0000000  0.0000000    1.00
   0.12500    0.12500    0.56250    -3  1  1
    0.0000000  0.0000000  1.0000000   1.0000000  0.0000000  0.0000000    1.00
   0.12500    0.12500    0.56250    -3  2  1
    0.0000000  0.0000000  1.0000000   1.0000000  0.0000000  0.0000000    1.00
   0.12500    0.12500    0.56250    -3  3  1
    0.0000000  0.0000000  1.0000000   1.0000000  0.0000000  0.0000000    1.00
   0.12500    0.12500    0.56250    -3  4  1
    0.0000000  0.0000000  1.0000000   1.0000000  0.0000000  0.0000000    1.00
  -0.12500   -0.12500    0.43750    -3  1  1
    0.0000000  0.0000000  1.0000000   1.0000000  0.0000000  0.0000000    1.00
  -0.12500   -0.12500    0.43750    -3  2  1
    0.0000000  0.0000000  1.0000000   1.0000000  0.0000000  0.0000000    1.00
  -0.12500   -0.12500    0.43750    -3  3  1
    0.0000000  0.0000000  1.0000000   1.0000000  0.0000000  0.0000000    1.00
  -0.12500   -0.12500    0.43750    -3  4  1
    0.0000000  0.0000000  1.0000000   1.0000000  0.0000000  0.0000000    1.00
end projections

begin nnkpts
   8
     1     2      0   0   0
     1     3      0   0   0
     1     9      0   0   0
     1    12      0   0   0
     1     2      0   0  -1
     1    32     -1  -1  -1
     1     7      0  -1   0
     1    25     -1   0   0
     2     1      0   0   0
     2     4      0   0   0
     2    10      0   0   0
     2     1      0   0   1
     2    11      0   0   1
     2     8      0  -1   0
     2    26     -1   0   0
     2    31     -1  -1   0
     3     1      0   0   0
     3     4      0   0   0
     3     5      0   0   0
     3    11      0   0   0
     3    14      0   0   0
     3     4      0   0  -1
     3    26     -1   0  -1
     3    27     -1   0   0
     4     2      0   0   0
     4     3      0   0   0
     4     6      0   0   0
     4    12      0   0   0
     4     3      0   0   1
     4    13      0   0   1
     4    25     -1   0   0
     4    28     -1   0   0
     5     3      0   0   0
     5     6      0   0   0
     5     7      0   0   0
     5    13      0   0   0
     5    16      0   0   0
     5     6      0   0  -1
     5    28     -1   0  -1
     5    29     -1   0   0
     6     4      0   0   0
     6     5      0   0   0
     6     8      0   0   0
     6    14      0   0   0
     6     5      0   0   1
     6    15      0   0   1
     6    27     -1   0   0
     6    30     -1   0   0
     7     5      0   0   0
     7     8      0   0   0
     7    15      0   0   0
     7     8      0   0  -1
     7    30     -1   0  -1
     7     1      0   1   0
     7    10      0   1   0
     7    31     -1   0   0
     8     6      0   0   0
     8     7      0   0   0
     8    16      0   0   0
     8     7      0   0   1
     8     9      0   1   1
     8     2      0   1   0
     8    29     -1   0   0
     8    32     -1   0   0
     9     1      0   0   0
     9    10      0   0   0
     9    11      0   0   0
     9    17      0   0   0
     9    20      0   0   0
     9    10      0   0  -1
     9     8      0  -1  -1
     9    15      0  -1   0
    10     2      0   0   0
    10     9      0   0   0
    10    12      0   0   0
    10    18      0   0   0
    10     9      0   0   1
    10    19      0   0   1
    10     7      0  -1   0
    10    16      0  -1   0
    11     3      0   0   0
    11     9      0   0   0
    11    12      0   0   0
    11    13      0   0   0
    11    19      0   0   0
    11    22      0   0   0
    11     2      0   0  -1
    11    12      0   0  -1
    12     1      0   0   0
    12     4      0   0   0
    12    10      0   0   0
    12    11      0   0   0
    12    14      0   0   0
    12    20      0   0   0
    12    11      0   0   1
    12    21      0   0   1
    13     5      0   0   0
    13    11      0   0   0
    13    14      0   0   0
    13    15      0   0   0
    13    21      0   0   0
    13    24      0   0   0
    13     4      0   0  -1
    13    14      0   0  -1
    14     3      0   0   0
    14     6      0   0   0
    14    12      0   0   0
    14    13      0   0   0
    14    16      0   0   0
    14    22      0   0   0
    14    13      0   0   1
    14    23      0   0   1
    15     7      0   0   0
    15    13      0   0   0
    15    16      0   0   0
    15    23      0   0   0
    15     6      0   0  -1
    15    16      0   0  -1
    15     9      0   1   0
    15    18      0   1   0
    16     5      0   0   0
    16     8      0   0   0
    16    14      0   0   0
    16    15      0   0   0
    16    24      0   0   0
    16    15      0   0   1
    16    17      0   1   1
    16    10      0   1   0
    17     9      0   0   0
    17    18      0   0   0
    17    19      0   0   0
    17    25      0   0   0
    17    28      0   0   0
    17    18      0   0  -1
    17    16      0  -1  -1
    17    23      0  -1   0
    18    10      0   0   0
    18    17      0   0   0
    18    20      0   0   0
    18    26      0   0   0
    18    17      0   0   1
    18    27      0   0   1
    18    15      0  -1   0
    18    24      0  -1   0
    19    11      0   0   0
    19    17      0   0   0
    19    20      0   0   0
    19    21      0   0   0
    19    27      0   0   0
    19    30      0   0   0
    19    10      0   0  -1
    19    20      0   0  -1
    20     9      0   0   0
    20    12      0   0   0
    20    18      0   0   0
    20    19      0   0   0
    20    22      0   0   0
    20    28      0   0   0
    20    19      0   0   1
    20    29      0   0   1
    21    13      0   0   0
    21    19      0   0   0
    21    22      0   0   0
    21    23      0   0   0
    21    29      0   0   0
    21    32      0   0   0
    21    12      0   0  -1
    21    22      0   0  -1
    22    11      0   0   0
    22    14      0   0   0
    22    20      0   0   0
    22    21      0   0   0
    22    24      0   0   0
    22    30      0   0   0
    22    21      0   0   1
    22    31      0   0   1
    23    15      0   0   0
    23    21      0   0   0
    23    24      0   0   0
    23    31      0   0   0
    23    14      0   0  -1
    23    24      0   0  -1
    23    17      0   1   0
    23    26      0   1   0
    24    13      0   0   0
    24    16      0   0   0
    24    22      0   0   0
    24    23      0   0   0
    24    32      0   0   0
    24    23      0   0   1
    24    25      0   1   1
    24    18      0   1   0
    25    17      0   0   0
    25    26      0   0   0
    25    27      0   0   0
    25    26      0   0  -1
    25    24      0  -1  -1
    25     1      1   0   0
    25     4      1   0   0
    25    31      0  -1   0
    26    18      0   0   0
    26    25      0   0   0
    26    28      0   0   0
    26    25      0   0   1
    26     3      1   0   1
    26     2      1   0   0
    26    23      0  -1   0
    26    32      0  -1   0
    27    19      0   0   0
    27    25      0   0   0
    27    28      0   0   0
    27    29      0   0   0
    27    18      0   0  -1
    27    28      0   0  -1
    27     3      1   0   0
    27     6      1   0   0
    28    17      0   0   0
    28    20      0   0   0
    28    26      0   0   0
    28    27      0   0   0
    28    30      0   0   0
    28    27      0   0   1
    28     5      1   0   1
    28     4      1   0   0
    29    21      0   0   0
    29    27      0   0   0
    29    30      0   0   0
    29    31      0   0   0
    29    20      0   0  -1
    29    30      0   0  -1
    29     5      1   0   0
    29     8      1   0   0
    30    19      0   0   0
    30    22      0   0   0
    30    28      0   0   0
    30    29      0   0   0
    30    32      0   0   0
    30    29      0   0   1
    30     7      1   0   1
    30     6      1   0   0
    31    23      0   0   0
    31    29      0   0   0
    31    32      0   0   0
    31    22      0   0  -1
    31    32      0   0  -1
    31     7      1   0   0
    31    25      0   1   0
    31     2      1   1   0
    32    21      0   0   0
    32    24      0   0   0
    32    30      0   0   0
    32    31      0   0   0
    32    31      0   0   1
    32     1      1   1   1
    32     8      1   0   0
    32    26      0   1   0
end nnkpts

begin exclude_bands
   0
end exclude_bands
