MPI startup(): Warning: I_MPI_PMI_LIBRARY will be ignored since the hydra process manager was found
MPI startup(): Warning: I_MPI_PMI_LIBRARY will be ignored since the hydra process manager was found
MPI startup(): Warning: I_MPI_PMI_LIBRARY will be ignored since the hydra process manager was found
MPI startup(): Warning: I_MPI_PMI_LIBRARY will be ignored since the hydra process manager was found

     Program PWSCF v.7.0 starts on 25May2022 at  2:28: 1 

     This program is part of the open-source Quantum ESPRESSO suite
     for quantum simulation of materials; please cite
         "P. Giannozzi et al., J. Phys.:Condens. Matter 21 395502 (2009);
         "P. Giannozzi et al., J. Phys.:Condens. Matter 29 465901 (2017);
         "P. Giannozzi et al., J. Chem. Phys. 152 154105 (2020);
          URL http://www.quantum-espresso.org", 
     in publications or presentations arising from this work. More details at
     http://www.quantum-espresso.org/quote

     Parallel version (MPI & OpenMP), running on       4 processor cores
     Number of MPI processes:                 4
     Threads/MPI process:                     1

     MPI processes distributed on     1 nodes
     77032 MiB available memory on the printing compute node when the environment starts
 
     Reading input from scf.in

     Current dimensions of program PWSCF are:
     Max number of different atomic species (ntypx) = 10
     Max number of k-points (npk) =  40000
     Max angular momentum in pseudopotentials (lmaxx) =  4
     Message from routine setup:
     using ibrav=0 with symmetry is DISCOURAGED, use correct ibrav instead
 
     R & G space division:  proc/nbgrp/npool/nimage =       4
     Subspace diagonalization in iterative solution of the eigenvalue problem:
     a serial algorithm will be used

 
     Parallelization info
     --------------------
     sticks:   dense  smooth     PW     G-vecs:    dense   smooth      PW
     Min        1591    1591    431                95580    95580   13409
     Max        1593    1593    432                95581    95581   13412
     Sum        6369    6369   1725               382323   382323   53643
 
     Using Slab Decomposition
 


     bravais-lattice index     =            0
     lattice parameter (alat)  =      20.0000  a.u.
     unit-cell volume          =    8000.0000 (a.u.)^3
     number of atoms/cell      =            1
     number of atomic types    =            1
     number of electrons       =         2.00
     number of Kohn-Sham states=            1
     kinetic-energy cutoff     =      50.0000  Ry
     charge density cutoff     =     200.0000  Ry
     scf convergence threshold =      1.0E-15
     mixing beta               =       0.7000
     number of iterations used =            8  plain     mixing
     Exchange-correlation= PBE
                           (   1   4   3   4   0   0   0)

     celldm(1)=  20.000000  celldm(2)=   0.000000  celldm(3)=   0.000000
     celldm(4)=   0.000000  celldm(5)=   0.000000  celldm(6)=   0.000000

     crystal axes: (cart. coord. in units of alat)
               a(1) = (   1.000000   0.000000   0.000000 )  
               a(2) = (   0.000000   1.000000   0.000000 )  
               a(3) = (   0.000000   0.000000   1.000000 )  

     reciprocal axes: (cart. coord. in units 2 pi/alat)
               b(1) = (  1.000000  0.000000  0.000000 )  
               b(2) = (  0.000000  1.000000  0.000000 )  
               b(3) = (  0.000000  0.000000  1.000000 )  


     PseudoPot. # 1 for He read from file:
     ../pseudo/He.dojo.sr.ONCVv0.4.pbe.standard.upf
     MD5 check sum: bea2bb8a1cebdc3616da13d914a49928
     Pseudo is Norm-conserving, Zval =  2.0
     Generated using ONCVPSP code by D. R. Hamann
     Using radial grid of  722 points,  3 beta functions with: 
                l(1) =   0
                l(2) =   0
                l(3) =   1

     atomic species   valence    mass     pseudopotential
        He             2.00     1.00000     He( 1.00)

     48 Sym. Ops., with inversion, found



   Cartesian axes

     site n.     atom                  positions (alat units)
         1           He  tau(   1) = (   0.0000000   0.0000000   0.0000000  )

     number of k points=     4
                       cart. coord. in units 2pi/alat
        k(    1) = (   0.0000000   0.0000000   0.0000000), wk =   0.2500000
        k(    2) = (   0.0000000   0.0000000  -0.5000000), wk =   0.7500000
        k(    3) = (   0.0000000  -0.5000000  -0.5000000), wk =   0.7500000
        k(    4) = (  -0.5000000  -0.5000000  -0.5000000), wk =   0.2500000

     Dense  grid:   382323 G-vectors     FFT dimensions: (  96,  96,  96)

     Estimated max dynamical RAM per process >      57.68 MB

     Estimated total dynamical RAM >     230.70 MB

     Initial potential from superposition of free atoms

     starting charge       2.0000, renormalised to       2.0000

     negative rho (up, down):  3.472E-04 0.000E+00
     Starting wfcs are    1 randomized atomic wfcs

     total cpu time spent up to now is        0.5 secs

     Self-consistent Calculation

     iteration #  1     ecut=    50.00 Ry     beta= 0.70
     Davidson diagonalization with overlap
     ethr =  1.00E-02,  avg # of iterations =  1.0

     Threshold (ethr) on eigenvalues was too large:
     Diagonalizing with lowered threshold

     Davidson diagonalization with overlap
     ethr =  3.43E-06,  avg # of iterations =  2.0

     negative rho (up, down):  9.108E-05 0.000E+00

     total cpu time spent up to now is        0.9 secs

     total energy              =      -5.70897652 Ry
     estimated scf accuracy    <       0.00008493 Ry

     iteration #  2     ecut=    50.00 Ry     beta= 0.70
     Davidson diagonalization with overlap
     ethr =  4.25E-06,  avg # of iterations =  1.0

     negative rho (up, down):  6.396E-06 0.000E+00

     total cpu time spent up to now is        1.1 secs

     total energy              =      -5.70899065 Ry
     estimated scf accuracy    <       0.00000497 Ry

     iteration #  3     ecut=    50.00 Ry     beta= 0.70
     Davidson diagonalization with overlap
     ethr =  2.48E-07,  avg # of iterations =  1.0

     total cpu time spent up to now is        1.3 secs

     total energy              =      -5.70899098 Ry
     estimated scf accuracy    <       0.00000014 Ry

     iteration #  4     ecut=    50.00 Ry     beta= 0.70
     Davidson diagonalization with overlap
     ethr =  7.10E-09,  avg # of iterations =  1.0

     total cpu time spent up to now is        1.5 secs

     total energy              =      -5.70899099 Ry
     estimated scf accuracy    <          4.1E-09 Ry

     iteration #  5     ecut=    50.00 Ry     beta= 0.70
     Davidson diagonalization with overlap
     ethr =  2.06E-10,  avg # of iterations =  2.0

     total cpu time spent up to now is        1.7 secs

     total energy              =      -5.70899099 Ry
     estimated scf accuracy    <          3.8E-11 Ry

     iteration #  6     ecut=    50.00 Ry     beta= 0.70
     Davidson diagonalization with overlap
     ethr =  1.92E-12,  avg # of iterations =  2.0

     total cpu time spent up to now is        2.0 secs

     total energy              =      -5.70899099 Ry
     estimated scf accuracy    <          2.2E-13 Ry

     iteration #  7     ecut=    50.00 Ry     beta= 0.70
     Davidson diagonalization with overlap
     ethr =  1.00E-13,  avg # of iterations =  1.0

     total cpu time spent up to now is        2.2 secs

     total energy              =      -5.70899099 Ry
     estimated scf accuracy    <          2.9E-14 Ry

     iteration #  8     ecut=    50.00 Ry     beta= 0.70
     Davidson diagonalization with overlap
     ethr =  1.00E-13,  avg # of iterations =  1.0

     total cpu time spent up to now is        2.4 secs

     total energy              =      -5.70899099 Ry
     estimated scf accuracy    <          3.7E-15 Ry

     iteration #  9     ecut=    50.00 Ry     beta= 0.70
     Davidson diagonalization with overlap
     ethr =  1.00E-13,  avg # of iterations =  1.0

     total cpu time spent up to now is        2.6 secs

     End of self-consistent calculation

          k = 0.0000 0.0000 0.0000 ( 47833 PWs)   bands (ev):

   -15.7457

          k = 0.0000 0.0000-0.5000 ( 47870 PWs)   bands (ev):

   -15.7458

          k = 0.0000-0.5000-0.5000 ( 47760 PWs)   bands (ev):

   -15.7453

          k =-0.5000-0.5000-0.5000 ( 47600 PWs)   bands (ev):

   -15.7444

     highest occupied level (ev):   -15.7444

!    total energy              =      -5.70899099 Ry
     estimated scf accuracy    <          9.6E-16 Ry

     The total energy is the sum of the following terms:
     one-electron contribution =      -6.50679227 Ry
     hartree contribution      =       3.39988491 Ry
     xc contribution           =      -2.03462412 Ry
     ewald contribution        =      -0.56745951 Ry

     convergence has been achieved in   9 iterations

     Forces acting on atoms (cartesian axes, Ry/au):

     atom    1 type  1   force =     0.00000000    0.00000000    0.00000000

     Total force =     0.000000     Total SCF correction =     0.000000


     Computing stress (Cartesian axis) and pressure

          total   stress  (Ry/bohr**3)                   (kbar)     P=       -0.70
  -0.00000474   0.00000000   0.00000000           -0.70        0.00        0.00
   0.00000000  -0.00000474   0.00000000            0.00       -0.70        0.00
   0.00000000   0.00000000  -0.00000474            0.00        0.00       -0.70


     Writing all to output data dir ./temp/He.save/
 
     init_run     :      0.37s CPU      0.41s WALL (       1 calls)
     electrons    :      2.08s CPU      2.15s WALL (       1 calls)
     forces       :      0.04s CPU      0.05s WALL (       1 calls)
     stress       :      0.27s CPU      0.28s WALL (       1 calls)

     Called by init_run:
     wfcinit      :      0.04s CPU      0.04s WALL (       1 calls)
     potinit      :      0.12s CPU      0.14s WALL (       1 calls)
     hinit0       :      0.04s CPU      0.05s WALL (       1 calls)

     Called by electrons:
     c_bands      :      0.66s CPU      0.66s WALL (      10 calls)
     sum_band     :      0.44s CPU      0.44s WALL (      10 calls)
     v_of_rho     :      0.84s CPU      0.88s WALL (      10 calls)
     mix_rho      :      0.19s CPU      0.23s WALL (      10 calls)

     Called by c_bands:
     init_us_2    :      0.14s CPU      0.14s WALL (      92 calls)
     init_us_2:cp :      0.14s CPU      0.14s WALL (      92 calls)
     cegterg      :      0.54s CPU      0.54s WALL (      40 calls)

     Called by *egterg:
     cdiaghg      :      0.00s CPU      0.00s WALL (      88 calls)
     h_psi        :      0.53s CPU      0.53s WALL (      96 calls)
     g_psi        :      0.01s CPU      0.01s WALL (      52 calls)

     Called by h_psi:
     h_psi:calbec :      0.02s CPU      0.02s WALL (      96 calls)
     vloc_psi     :      0.49s CPU      0.49s WALL (      96 calls)
     add_vuspsi   :      0.01s CPU      0.01s WALL (      96 calls)

     General routines
     calbec       :      0.03s CPU      0.03s WALL (     116 calls)
     fft          :      0.46s CPU      0.48s WALL (     108 calls)
     ffts         :      0.04s CPU      0.04s WALL (      10 calls)
     fftw         :      0.50s CPU      0.51s WALL (     232 calls)
 
     Parallel routines
 
     PWSCF        :      2.82s CPU      2.99s WALL

 
   This run was terminated on:   2:28: 4  25May2022            

=------------------------------------------------------------------------------=
   JOB DONE.
=------------------------------------------------------------------------------=
