MPI startup(): Warning: I_MPI_PMI_LIBRARY will be ignored since the hydra process manager was found
MPI startup(): Warning: I_MPI_PMI_LIBRARY will be ignored since the hydra process manager was found
MPI startup(): Warning: I_MPI_PMI_LIBRARY will be ignored since the hydra process manager was found
MPI startup(): Warning: I_MPI_PMI_LIBRARY will be ignored since the hydra process manager was found

     Program PWSCF v.7.0 starts on 25May2022 at  2:28:28 

     This program is part of the open-source Quantum ESPRESSO suite
     for quantum simulation of materials; please cite
         "P. Giannozzi et al., J. Phys.:Condens. Matter 21 395502 (2009);
         "P. Giannozzi et al., J. Phys.:Condens. Matter 29 465901 (2017);
         "P. Giannozzi et al., J. Chem. Phys. 152 154105 (2020);
          URL http://www.quantum-espresso.org", 
     in publications or presentations arising from this work. More details at
     http://www.quantum-espresso.org/quote

     Parallel version (MPI & OpenMP), running on       4 processor cores
     Number of MPI processes:                 4
     Threads/MPI process:                     1

     MPI processes distributed on     1 nodes
     77906 MiB available memory on the printing compute node when the environment starts
 
     Reading input from nscf.in

     Current dimensions of program PWSCF are:
     Max number of different atomic species (ntypx) = 10
     Max number of k-points (npk) =  40000
     Max angular momentum in pseudopotentials (lmaxx) =  4

     Atomic positions and unit cell read from directory:
     ./temp/He.save/
 
     Message from routine setup:
     using ibrav=0 with symmetry is DISCOURAGED, use correct ibrav instead
 
     R & G space division:  proc/nbgrp/npool/nimage =       4
     Subspace diagonalization in iterative solution of the eigenvalue problem:
     a serial algorithm will be used

 
     Parallelization info
     --------------------
     sticks:   dense  smooth     PW     G-vecs:    dense   smooth      PW
     Min        1591    1591    431                95580    95580   13409
     Max        1593    1593    432                95581    95581   13412
     Sum        6369    6369   1725               382323   382323   53643
 
     Using Slab Decomposition
 


     bravais-lattice index     =            0
     lattice parameter (alat)  =      20.0000  a.u.
     unit-cell volume          =    8000.0000 (a.u.)^3
     number of atoms/cell      =            1
     number of atomic types    =            1
     number of electrons       =         2.00
     number of Kohn-Sham states=            1
     kinetic-energy cutoff     =      50.0000  Ry
     charge density cutoff     =     200.0000  Ry
     Exchange-correlation= PBE
                           (   1   4   3   4   0   0   0)

     celldm(1)=  20.000000  celldm(2)=   0.000000  celldm(3)=   0.000000
     celldm(4)=   0.000000  celldm(5)=   0.000000  celldm(6)=   0.000000

     crystal axes: (cart. coord. in units of alat)
               a(1) = (   1.000000   0.000000   0.000000 )  
               a(2) = (   0.000000   1.000000   0.000000 )  
               a(3) = (   0.000000   0.000000   1.000000 )  

     reciprocal axes: (cart. coord. in units 2 pi/alat)
               b(1) = (  1.000000  0.000000  0.000000 )  
               b(2) = (  0.000000  1.000000  0.000000 )  
               b(3) = (  0.000000  0.000000  1.000000 )  


     PseudoPot. # 1 for He read from file:
     ../pseudo/He.dojo.sr.ONCVv0.4.pbe.standard.upf
     MD5 check sum: bea2bb8a1cebdc3616da13d914a49928
     Pseudo is Norm-conserving, Zval =  2.0
     Generated using ONCVPSP code by D. R. Hamann
     Using radial grid of  722 points,  3 beta functions with: 
                l(1) =   0
                l(2) =   0
                l(3) =   1

     atomic species   valence    mass     pseudopotential
        He             2.00     1.00000     He( 1.00)

     48 Sym. Ops., with inversion, found (32 have fractional translation)



   Cartesian axes

     site n.     atom                  positions (alat units)
         1           He  tau(   1) = (   0.0000000   0.0000000   0.5000000  )

     number of k points=     8
                       cart. coord. in units 2pi/alat
        k(    1) = (   0.0000000   0.0000000   0.0000000), wk =   0.2500000
        k(    2) = (   0.0000000   0.0000000   0.5000000), wk =   0.2500000
        k(    3) = (   0.0000000   0.5000000   0.0000000), wk =   0.2500000
        k(    4) = (   0.0000000   0.5000000   0.5000000), wk =   0.2500000
        k(    5) = (   0.5000000   0.0000000   0.0000000), wk =   0.2500000
        k(    6) = (   0.5000000   0.0000000   0.5000000), wk =   0.2500000
        k(    7) = (   0.5000000   0.5000000   0.0000000), wk =   0.2500000
        k(    8) = (   0.5000000   0.5000000   0.5000000), wk =   0.2500000

     Dense  grid:   382323 G-vectors     FFT dimensions: (  96,  96,  96)

     Estimated max dynamical RAM per process >      30.47 MB

     Estimated total dynamical RAM >     121.86 MB

     The potential is recalculated from file :
     ./temp/He.save/charge-density

     Starting wfcs are    1 randomized atomic wfcs

     Band Structure Calculation
     Davidson diagonalization with overlap

     ethr =  1.00E-13,  avg # of iterations =  8.0

     total cpu time spent up to now is        0.9 secs

     End of band structure calculation

          k = 0.0000 0.0000 0.0000 ( 47833 PWs)   bands (ev):

   -15.7457

          k = 0.0000 0.0000 0.5000 ( 47870 PWs)   bands (ev):

   -15.7458

          k = 0.0000 0.5000 0.0000 ( 47870 PWs)   bands (ev):

   -15.7458

          k = 0.0000 0.5000 0.5000 ( 47760 PWs)   bands (ev):

   -15.7453

          k = 0.5000 0.0000 0.0000 ( 47870 PWs)   bands (ev):

   -15.7458

          k = 0.5000 0.0000 0.5000 ( 47760 PWs)   bands (ev):

   -15.7453

          k = 0.5000 0.5000 0.0000 ( 47760 PWs)   bands (ev):

   -15.7453

          k = 0.5000 0.5000 0.5000 ( 47600 PWs)   bands (ev):

   -15.7444

     Writing all to output data dir ./temp/He.save/
 
     init_run     :      0.33s CPU      0.37s WALL (       1 calls)
     electrons    :      0.42s CPU      0.42s WALL (       1 calls)

     Called by init_run:
     wfcinit      :      0.00s CPU      0.00s WALL (       1 calls)
     potinit      :      0.08s CPU      0.11s WALL (       1 calls)
     hinit0       :      0.08s CPU      0.09s WALL (       1 calls)

     Called by electrons:
     c_bands      :      0.42s CPU      0.42s WALL (       1 calls)
     v_of_rho     :      0.07s CPU      0.09s WALL (       1 calls)

     Called by c_bands:
     init_us_2    :      0.01s CPU      0.01s WALL (       8 calls)
     init_us_2:cp :      0.01s CPU      0.01s WALL (       8 calls)
     cegterg      :      0.35s CPU      0.35s WALL (       8 calls)

     Called by *egterg:
     cdiaghg      :      0.00s CPU      0.00s WALL (      72 calls)
     h_psi        :      0.36s CPU      0.36s WALL (      80 calls)
     g_psi        :      0.01s CPU      0.01s WALL (      64 calls)

     Called by h_psi:
     h_psi:calbec :      0.02s CPU      0.02s WALL (      80 calls)
     vloc_psi     :      0.34s CPU      0.34s WALL (      80 calls)
     add_vuspsi   :      0.00s CPU      0.00s WALL (      80 calls)

     General routines
     calbec       :      0.02s CPU      0.02s WALL (      80 calls)
     fft          :      0.04s CPU      0.05s WALL (      10 calls)
     fftw         :      0.29s CPU      0.29s WALL (     160 calls)
     davcio       :      0.00s CPU      0.00s WALL (      16 calls)
 
     Parallel routines
 
     PWSCF        :      0.90s CPU      0.98s WALL

 
   This run was terminated on:   2:28:29  25May2022            

=------------------------------------------------------------------------------=
   JOB DONE.
=------------------------------------------------------------------------------=
