MPI startup(): Warning: I_MPI_PMI_LIBRARY will be ignored since the hydra process manager was found
MPI startup(): Warning: I_MPI_PMI_LIBRARY will be ignored since the hydra process manager was found
MPI startup(): Warning: I_MPI_PMI_LIBRARY will be ignored since the hydra process manager was found
MPI startup(): Warning: I_MPI_PMI_LIBRARY will be ignored since the hydra process manager was found

     Program PWSCF v.7.0 starts on 25May2022 at  4:34:12 

     This program is part of the open-source Quantum ESPRESSO suite
     for quantum simulation of materials; please cite
         "P. Giannozzi et al., J. Phys.:Condens. Matter 21 395502 (2009);
         "P. Giannozzi et al., J. Phys.:Condens. Matter 29 465901 (2017);
         "P. Giannozzi et al., J. Chem. Phys. 152 154105 (2020);
          URL http://www.quantum-espresso.org", 
     in publications or presentations arising from this work. More details at
     http://www.quantum-espresso.org/quote

     Parallel version (MPI & OpenMP), running on       4 processor cores
     Number of MPI processes:                 4
     Threads/MPI process:                     1

     MPI processes distributed on     1 nodes
     75934 MiB available memory on the printing compute node when the environment starts
 
     Reading input from nscf.in

     Current dimensions of program PWSCF are:
     Max number of different atomic species (ntypx) = 10
     Max number of k-points (npk) =  40000
     Max angular momentum in pseudopotentials (lmaxx) =  4

     Atomic positions and unit cell read from directory:
     ./temp/si.save/
     Atomic positions from file used, from input discarded
 
 
     R & G space division:  proc/nbgrp/npool/nimage =       4
     Subspace diagonalization in iterative solution of the eigenvalue problem:
     a serial algorithm will be used

 
     Parallelization info
     --------------------
     sticks:   dense  smooth     PW     G-vecs:    dense   smooth      PW
     Min         256     256     78                 5385     5385     923
     Max         257     257     79                 5388     5388     925
     Sum        1027    1027    313                21547    21547    3695
 
     Using Slab Decomposition
 


     bravais-lattice index     =            2
     lattice parameter (alat)  =      10.2633  a.u.
     unit-cell volume          =     270.2704 (a.u.)^3
     number of atoms/cell      =            2
     number of atomic types    =            1
     number of electrons       =         8.00
     number of Kohn-Sham states=           18
     kinetic-energy cutoff     =      70.0000  Ry
     charge density cutoff     =     280.0000  Ry
     Exchange-correlation= PBE
                           (   1   4   3   4   0   0   0)

     celldm(1)=  10.263280  celldm(2)=   0.000000  celldm(3)=   0.000000
     celldm(4)=   0.000000  celldm(5)=   0.000000  celldm(6)=   0.000000

     crystal axes: (cart. coord. in units of alat)
               a(1) = (  -0.500000   0.000000   0.500000 )  
               a(2) = (   0.000000   0.500000   0.500000 )  
               a(3) = (  -0.500000   0.500000   0.000000 )  

     reciprocal axes: (cart. coord. in units 2 pi/alat)
               b(1) = ( -1.000000 -1.000000  1.000000 )  
               b(2) = (  1.000000  1.000000  1.000000 )  
               b(3) = ( -1.000000  1.000000 -1.000000 )  


     PseudoPot. # 1 for Si read from file:
     ~/PP/all/Si.dojo.sr.ONCVv0.4.pbe.standard.upf
     MD5 check sum: Not computed, couldn't open file
     Pseudo is Norm-conserving + core correction, Zval =  4.0
     Generated using ONCVPSP code by D. R. Hamann
     Using radial grid of 1510 points,  6 beta functions with: 
                l(1) =   0
                l(2) =   0
                l(3) =   1
                l(4) =   1
                l(5) =   2
                l(6) =   2

     atomic species   valence    mass     pseudopotential
        Si             4.00    28.08550     Si( 1.00)

     48 Sym. Ops., with inversion, found (36 have fractional translation)



   Cartesian axes

     site n.     atom                  positions (alat units)
         1           Si  tau(   1) = (  -0.1250000   0.1250000   0.1250000  )
         2           Si  tau(   2) = (   0.1250000  -0.1250000  -0.1250000  )

     number of k points=    64
                       cart. coord. in units 2pi/alat
        k(    1) = (   0.0000000   0.0000000   0.0000000), wk =   0.0312500
        k(    2) = (  -0.2500000   0.2500000  -0.2500000), wk =   0.0312500
        k(    3) = (  -0.5000000   0.5000000  -0.5000000), wk =   0.0312500
        k(    4) = (  -0.7500000   0.7500000  -0.7500000), wk =   0.0312500
        k(    5) = (   0.2500000   0.2500000   0.2500000), wk =   0.0312500
        k(    6) = (   0.0000000   0.5000000   0.0000000), wk =   0.0312500
        k(    7) = (  -0.2500000   0.7500000  -0.2500000), wk =   0.0312500
        k(    8) = (  -0.5000000   1.0000000  -0.5000000), wk =   0.0312500
        k(    9) = (   0.5000000   0.5000000   0.5000000), wk =   0.0312500
        k(   10) = (   0.2500000   0.7500000   0.2500000), wk =   0.0312500
        k(   11) = (   0.0000000   1.0000000   0.0000000), wk =   0.0312500
        k(   12) = (  -0.2500000   1.2500000  -0.2500000), wk =   0.0312500
        k(   13) = (   0.7500000   0.7500000   0.7500000), wk =   0.0312500
        k(   14) = (   0.5000000   1.0000000   0.5000000), wk =   0.0312500
        k(   15) = (   0.2500000   1.2500000   0.2500000), wk =   0.0312500
        k(   16) = (   0.0000000   1.5000000   0.0000000), wk =   0.0312500
        k(   17) = (  -0.2500000  -0.2500000   0.2500000), wk =   0.0312500
        k(   18) = (  -0.5000000   0.0000000   0.0000000), wk =   0.0312500
        k(   19) = (  -0.7500000   0.2500000  -0.2500000), wk =   0.0312500
        k(   20) = (  -1.0000000   0.5000000  -0.5000000), wk =   0.0312500
        k(   21) = (   0.0000000   0.0000000   0.5000000), wk =   0.0312500
        k(   22) = (  -0.2500000   0.2500000   0.2500000), wk =   0.0312500
        k(   23) = (  -0.5000000   0.5000000   0.0000000), wk =   0.0312500
        k(   24) = (  -0.7500000   0.7500000  -0.2500000), wk =   0.0312500
        k(   25) = (   0.2500000   0.2500000   0.7500000), wk =   0.0312500
        k(   26) = (   0.0000000   0.5000000   0.5000000), wk =   0.0312500
        k(   27) = (  -0.2500000   0.7500000   0.2500000), wk =   0.0312500
        k(   28) = (  -0.5000000   1.0000000   0.0000000), wk =   0.0312500
        k(   29) = (   0.5000000   0.5000000   1.0000000), wk =   0.0312500
        k(   30) = (   0.2500000   0.7500000   0.7500000), wk =   0.0312500
        k(   31) = (   0.0000000   1.0000000   0.5000000), wk =   0.0312500
        k(   32) = (  -0.2500000   1.2500000   0.2500000), wk =   0.0312500
        k(   33) = (  -0.5000000  -0.5000000   0.5000000), wk =   0.0312500
        k(   34) = (  -0.7500000  -0.2500000   0.2500000), wk =   0.0312500
        k(   35) = (  -1.0000000   0.0000000   0.0000000), wk =   0.0312500
        k(   36) = (  -1.2500000   0.2500000  -0.2500000), wk =   0.0312500
        k(   37) = (  -0.2500000  -0.2500000   0.7500000), wk =   0.0312500
        k(   38) = (  -0.5000000   0.0000000   0.5000000), wk =   0.0312500
        k(   39) = (  -0.7500000   0.2500000   0.2500000), wk =   0.0312500
        k(   40) = (  -1.0000000   0.5000000   0.0000000), wk =   0.0312500
        k(   41) = (   0.0000000   0.0000000   1.0000000), wk =   0.0312500
        k(   42) = (  -0.2500000   0.2500000   0.7500000), wk =   0.0312500
        k(   43) = (  -0.5000000   0.5000000   0.5000000), wk =   0.0312500
        k(   44) = (  -0.7500000   0.7500000   0.2500000), wk =   0.0312500
        k(   45) = (   0.2500000   0.2500000   1.2500000), wk =   0.0312500
        k(   46) = (   0.0000000   0.5000000   1.0000000), wk =   0.0312500
        k(   47) = (  -0.2500000   0.7500000   0.7500000), wk =   0.0312500
        k(   48) = (  -0.5000000   1.0000000   0.5000000), wk =   0.0312500
        k(   49) = (  -0.7500000  -0.7500000   0.7500000), wk =   0.0312500
        k(   50) = (  -1.0000000  -0.5000000   0.5000000), wk =   0.0312500
        k(   51) = (  -1.2500000  -0.2500000   0.2500000), wk =   0.0312500
        k(   52) = (  -1.5000000   0.0000000   0.0000000), wk =   0.0312500
        k(   53) = (  -0.5000000  -0.5000000   1.0000000), wk =   0.0312500
        k(   54) = (  -0.7500000  -0.2500000   0.7500000), wk =   0.0312500
        k(   55) = (  -1.0000000   0.0000000   0.5000000), wk =   0.0312500
        k(   56) = (  -1.2500000   0.2500000   0.2500000), wk =   0.0312500
        k(   57) = (  -0.2500000  -0.2500000   1.2500000), wk =   0.0312500
        k(   58) = (  -0.5000000   0.0000000   1.0000000), wk =   0.0312500
        k(   59) = (  -0.7500000   0.2500000   0.7500000), wk =   0.0312500
        k(   60) = (  -1.0000000   0.5000000   0.5000000), wk =   0.0312500
        k(   61) = (   0.0000000   0.0000000   1.5000000), wk =   0.0312500
        k(   62) = (  -0.2500000   0.2500000   1.2500000), wk =   0.0312500
        k(   63) = (  -0.5000000   0.5000000   1.0000000), wk =   0.0312500
        k(   64) = (  -0.7500000   0.7500000   0.7500000), wk =   0.0312500

     Dense  grid:    21547 G-vectors     FFT dimensions: (  40,  40,  40)

     Estimated max dynamical RAM per process >       4.52 MB

     Estimated total dynamical RAM >      18.06 MB

     The potential is recalculated from file :
     ./temp/si.save/charge-density

     Starting wfcs are    8 randomized atomic wfcs +   10 random wfcs

     Band Structure Calculation
     Davidson diagonalization with overlap

     ethr =  1.25E-12,  avg # of iterations = 55.6

     total cpu time spent up to now is       15.1 secs

     End of band structure calculation

          k = 0.0000 0.0000 0.0000 (  2685 PWs)   bands (ev):

    -5.7354   6.2268   6.2268   6.2268   8.7829   8.7829   8.7829   9.5638
    13.9550  13.9550  14.1876  17.4811  17.4811  17.4811  21.6323  29.2312
    29.2312  29.2312

          k =-0.2500 0.2500-0.2500 (  2683 PWs)   bands (ev):

    -4.9363   2.2960   5.4655   5.4655   8.2448   9.7273   9.7273  13.1295
    13.4304  13.4304  15.2247  18.0658  20.8582  20.8582  24.0828  24.0828
    24.1940  26.3112

          k =-0.5000 0.5000-0.5000 (  2692 PWs)   bands (ev):

    -3.4061  -0.7450   5.0261   5.0261   7.7536   9.5647   9.5647  13.9581
    16.7830  16.7830  17.5643  17.5643  17.5743  19.2160  25.5577  26.2087
    27.8432  27.8432

          k =-0.7500 0.7500-0.7500 (  2683 PWs)   bands (ev):

    -4.9363   2.2960   5.4655   5.4655   8.2448   9.7273   9.7273  13.1295
    13.4304  13.4304  15.2247  18.0658  20.8582  20.8582  24.0828  24.0828
    24.1940  26.3112

          k = 0.2500 0.2500 0.2500 (  2683 PWs)   bands (ev):

    -4.9363   2.2960   5.4655   5.4655   8.2448   9.7273   9.7273  13.1295
    13.4304  13.4304  15.2247  18.0658  20.8582  20.8582  24.0828  24.0828
    24.1940  26.3112

          k = 0.0000 0.5000 0.0000 (  2682 PWs)   bands (ev):

    -4.6542   2.7040   4.3351   4.3351   7.3541   9.3590  11.9778  11.9778
    14.2741  15.1638  17.6596  19.2364  19.2364  19.9549  23.6386  23.6386
    24.5504  26.5531

          k =-0.2500 0.7500-0.2500 (  2680 PWs)   bands (ev):

    -3.0196  -0.1599   2.6911   4.0199   7.7454  10.6756  11.9625  12.1429
    16.4288  16.7670  18.3834  18.9257  19.2586  23.0560  23.9331  24.8139
    25.5871  25.7931

          k =-0.5000 1.0000-0.5000 (  2676 PWs)   bands (ev):

    -3.6932   0.7419   2.4732   4.8971   8.6722  11.0085  11.3610  12.3618
    12.6844  15.8538  18.8467  19.4109  19.6967  22.8936  23.2444  23.6486
    24.8996  27.4060

          k = 0.5000 0.5000 0.5000 (  2692 PWs)   bands (ev):

    -3.4061  -0.7450   5.0261   5.0261   7.7536   9.5647   9.5647  13.9581
    16.7830  16.7830  17.5643  17.5643  17.5743  19.2160  25.5577  26.2087
    27.8432  27.8432

          k = 0.2500 0.7500 0.2500 (  2680 PWs)   bands (ev):

    -3.0196  -0.1599   2.6911   4.0199   7.7454  10.6756  11.9625  12.1429
    16.4288  16.7670  18.3834  18.9257  19.2586  23.0560  23.9331  24.8139
    25.5871  25.7931

          k = 0.0000 1.0000 0.0000 (  2698 PWs)   bands (ev):

    -1.5940  -1.5940   3.3726   3.3726   6.9366   6.9366  16.3129  16.3129
    17.2125  17.2125  18.7559  18.7559  19.2607  19.2607  25.0494  25.0494
    25.9627  25.9627

          k =-0.2500 1.2500-0.2500 (  2680 PWs)   bands (ev):

    -3.0196  -0.1599   2.6911   4.0199   7.7454  10.6756  11.9625  12.1429
    16.4288  16.7670  18.3834  18.9257  19.2586  23.0560  23.9331  24.8139
    25.5871  25.7931

          k = 0.7500 0.7500 0.7500 (  2683 PWs)   bands (ev):

    -4.9363   2.2960   5.4655   5.4655   8.2448   9.7273   9.7273  13.1295
    13.4304  13.4304  15.2247  18.0658  20.8582  20.8582  24.0828  24.0828
    24.1940  26.3112

          k = 0.5000 1.0000 0.5000 (  2676 PWs)   bands (ev):

    -3.6932   0.7419   2.4732   4.8971   8.6722  11.0085  11.3610  12.3618
    12.6844  15.8538  18.8467  19.4109  19.6967  22.8936  23.2444  23.6486
    24.8996  27.4060

          k = 0.2500 1.2500 0.2500 (  2680 PWs)   bands (ev):

    -3.0196  -0.1599   2.6911   4.0199   7.7454  10.6756  11.9625  12.1429
    16.4288  16.7670  18.3834  18.9257  19.2586  23.0560  23.9331  24.8139
    25.5871  25.7931

          k = 0.0000 1.5000 0.0000 (  2682 PWs)   bands (ev):

    -4.6542   2.7040   4.3351   4.3351   7.3541   9.3590  11.9778  11.9778
    14.2741  15.1638  17.6596  19.2364  19.2364  19.9549  23.6386  23.6386
    24.5504  26.5531

          k =-0.2500-0.2500 0.2500 (  2683 PWs)   bands (ev):

    -4.9363   2.2960   5.4655   5.4655   8.2448   9.7273   9.7273  13.1295
    13.4304  13.4304  15.2247  18.0658  20.8582  20.8582  24.0828  24.0828
    24.1940  26.3112

          k =-0.5000 0.0000 0.0000 (  2682 PWs)   bands (ev):

    -4.6542   2.7040   4.3351   4.3351   7.3541   9.3590  11.9778  11.9778
    14.2741  15.1638  17.6596  19.2364  19.2364  19.9549  23.6386  23.6386
    24.5504  26.5531

          k =-0.7500 0.2500-0.2500 (  2680 PWs)   bands (ev):

    -3.0196  -0.1599   2.6911   4.0199   7.7454  10.6756  11.9625  12.1429
    16.4288  16.7670  18.3834  18.9257  19.2586  23.0560  23.9331  24.8139
    25.5871  25.7931

          k =-1.0000 0.5000-0.5000 (  2676 PWs)   bands (ev):

    -3.6932   0.7419   2.4732   4.8971   8.6722  11.0085  11.3610  12.3618
    12.6844  15.8538  18.8467  19.4109  19.6967  22.8936  23.2444  23.6486
    24.8996  27.4060

          k = 0.0000 0.0000 0.5000 (  2682 PWs)   bands (ev):

    -4.6542   2.7040   4.3351   4.3351   7.3541   9.3590  11.9778  11.9778
    14.2741  15.1638  17.6596  19.2364  19.2364  19.9549  23.6386  23.6386
    24.5504  26.5531

          k =-0.2500 0.2500 0.2500 (  2683 PWs)   bands (ev):

    -4.9363   2.2960   5.4655   5.4655   8.2448   9.7273   9.7273  13.1295
    13.4304  13.4304  15.2247  18.0658  20.8582  20.8582  24.0828  24.0828
    24.1940  26.3112

          k =-0.5000 0.5000 0.0000 (  2676 PWs)   bands (ev):

    -3.6932   0.7419   2.4732   4.8971   8.6722  11.0085  11.3610  12.3618
    12.6844  15.8538  18.8467  19.4109  19.6967  22.8936  23.2444  23.6486
    24.8996  27.4060

          k =-0.7500 0.7500-0.2500 (  2680 PWs)   bands (ev):

    -3.0196  -0.1599   2.6911   4.0199   7.7454  10.6756  11.9625  12.1429
    16.4288  16.7670  18.3834  18.9257  19.2586  23.0560  23.9331  24.8139
    25.5871  25.7931

          k = 0.2500 0.2500 0.7500 (  2680 PWs)   bands (ev):

    -3.0196  -0.1599   2.6911   4.0199   7.7454  10.6756  11.9625  12.1429
    16.4288  16.7670  18.3834  18.9257  19.2586  23.0560  23.9331  24.8139
    25.5871  25.7931

          k = 0.0000 0.5000 0.5000 (  2676 PWs)   bands (ev):

    -3.6932   0.7419   2.4732   4.8971   8.6722  11.0085  11.3610  12.3618
    12.6844  15.8538  18.8467  19.4109  19.6967  22.8936  23.2444  23.6486
    24.8996  27.4060

          k =-0.2500 0.7500 0.2500 (  2680 PWs)   bands (ev):

    -3.0196  -0.1599   2.6911   4.0199   7.7454  10.6756  11.9625  12.1429
    16.4288  16.7670  18.3834  18.9257  19.2586  23.0560  23.9331  24.8139
    25.5871  25.7931

          k =-0.5000 1.0000 0.0000 (  2656 PWs)   bands (ev):

    -1.4305  -1.4305   2.3736   2.3736  10.5000  10.5000  11.2206  11.2206
    16.7977  16.7977  19.2578  19.2578  22.6678  22.6678  24.8239  24.8239
    25.0981  25.0981

          k = 0.5000 0.5000 1.0000 (  2676 PWs)   bands (ev):

    -3.6932   0.7419   2.4732   4.8971   8.6722  11.0085  11.3610  12.3618
    12.6844  15.8538  18.8467  19.4109  19.6967  22.8936  23.2444  23.6486
    24.8996  27.4060

          k = 0.2500 0.7500 0.7500 (  2680 PWs)   bands (ev):

    -3.0196  -0.1599   2.6911   4.0199   7.7454  10.6756  11.9625  12.1429
    16.4288  16.7670  18.3834  18.9257  19.2586  23.0560  23.9331  24.8139
    25.5871  25.7931

          k = 0.0000 1.0000 0.5000 (  2656 PWs)   bands (ev):

    -1.4305  -1.4305   2.3736   2.3736  10.5000  10.5000  11.2206  11.2206
    16.7977  16.7977  19.2578  19.2578  22.6678  22.6678  24.8239  24.8239
    25.0981  25.0981

          k =-0.2500 1.2500 0.2500 (  2680 PWs)   bands (ev):

    -3.0196  -0.1599   2.6911   4.0199   7.7454  10.6756  11.9625  12.1429
    16.4288  16.7670  18.3834  18.9257  19.2586  23.0560  23.9331  24.8139
    25.5871  25.7931

          k =-0.5000-0.5000 0.5000 (  2692 PWs)   bands (ev):

    -3.4061  -0.7450   5.0261   5.0261   7.7536   9.5647   9.5647  13.9581
    16.7830  16.7830  17.5643  17.5643  17.5743  19.2160  25.5577  26.2087
    27.8432  27.8432

          k =-0.7500-0.2500 0.2500 (  2680 PWs)   bands (ev):

    -3.0196  -0.1599   2.6911   4.0199   7.7454  10.6756  11.9625  12.1429
    16.4288  16.7670  18.3834  18.9257  19.2586  23.0560  23.9331  24.8139
    25.5871  25.7931

          k =-1.0000 0.0000 0.0000 (  2698 PWs)   bands (ev):

    -1.5940  -1.5940   3.3726   3.3726   6.9366   6.9366  16.3129  16.3129
    17.2125  17.2125  18.7559  18.7559  19.2607  19.2607  25.0494  25.0494
    25.9627  25.9627

          k =-1.2500 0.2500-0.2500 (  2680 PWs)   bands (ev):

    -3.0196  -0.1599   2.6911   4.0199   7.7454  10.6756  11.9625  12.1429
    16.4288  16.7670  18.3834  18.9257  19.2586  23.0560  23.9331  24.8139
    25.5871  25.7931

          k =-0.2500-0.2500 0.7500 (  2680 PWs)   bands (ev):

    -3.0196  -0.1599   2.6911   4.0199   7.7454  10.6756  11.9625  12.1429
    16.4288  16.7670  18.3834  18.9257  19.2586  23.0560  23.9331  24.8139
    25.5871  25.7931

          k =-0.5000 0.0000 0.5000 (  2676 PWs)   bands (ev):

    -3.6932   0.7419   2.4732   4.8971   8.6722  11.0085  11.3610  12.3618
    12.6844  15.8538  18.8467  19.4109  19.6967  22.8936  23.2444  23.6486
    24.8996  27.4060

          k =-0.7500 0.2500 0.2500 (  2680 PWs)   bands (ev):

    -3.0196  -0.1599   2.6911   4.0199   7.7454  10.6756  11.9625  12.1429
    16.4288  16.7670  18.3834  18.9257  19.2586  23.0560  23.9331  24.8139
    25.5871  25.7931

          k =-1.0000 0.5000 0.0000 (  2656 PWs)   bands (ev):

    -1.4305  -1.4305   2.3736   2.3736  10.5000  10.5000  11.2206  11.2206
    16.7977  16.7977  19.2578  19.2578  22.6678  22.6678  24.8239  24.8239
    25.0981  25.0981

          k = 0.0000 0.0000 1.0000 (  2698 PWs)   bands (ev):

    -1.5940  -1.5940   3.3726   3.3726   6.9366   6.9366  16.3129  16.3129
    17.2125  17.2125  18.7559  18.7559  19.2607  19.2607  25.0494  25.0494
    25.9627  25.9627

          k =-0.2500 0.2500 0.7500 (  2680 PWs)   bands (ev):

    -3.0196  -0.1599   2.6911   4.0199   7.7454  10.6756  11.9625  12.1429
    16.4288  16.7670  18.3834  18.9257  19.2586  23.0560  23.9331  24.8139
    25.5871  25.7931

          k =-0.5000 0.5000 0.5000 (  2692 PWs)   bands (ev):

    -3.4061  -0.7450   5.0261   5.0261   7.7536   9.5647   9.5647  13.9581
    16.7830  16.7830  17.5643  17.5643  17.5743  19.2160  25.5577  26.2087
    27.8432  27.8432

          k =-0.7500 0.7500 0.2500 (  2680 PWs)   bands (ev):

    -3.0196  -0.1599   2.6911   4.0199   7.7454  10.6756  11.9625  12.1429
    16.4288  16.7670  18.3834  18.9257  19.2586  23.0560  23.9331  24.8139
    25.5871  25.7931

          k = 0.2500 0.2500 1.2500 (  2680 PWs)   bands (ev):

    -3.0196  -0.1599   2.6911   4.0199   7.7454  10.6756  11.9625  12.1429
    16.4288  16.7670  18.3834  18.9257  19.2586  23.0560  23.9331  24.8139
    25.5871  25.7931

          k = 0.0000 0.5000 1.0000 (  2656 PWs)   bands (ev):

    -1.4305  -1.4305   2.3736   2.3736  10.5000  10.5000  11.2206  11.2206
    16.7977  16.7977  19.2578  19.2578  22.6678  22.6678  24.8239  24.8239
    25.0981  25.0981

          k =-0.2500 0.7500 0.7500 (  2680 PWs)   bands (ev):

    -3.0196  -0.1599   2.6911   4.0199   7.7454  10.6756  11.9625  12.1429
    16.4288  16.7670  18.3834  18.9257  19.2586  23.0560  23.9331  24.8139
    25.5871  25.7931

          k =-0.5000 1.0000 0.5000 (  2676 PWs)   bands (ev):

    -3.6932   0.7419   2.4732   4.8971   8.6722  11.0085  11.3610  12.3618
    12.6844  15.8538  18.8467  19.4109  19.6967  22.8936  23.2444  23.6486
    24.8996  27.4060

          k =-0.7500-0.7500 0.7500 (  2683 PWs)   bands (ev):

    -4.9363   2.2960   5.4655   5.4655   8.2448   9.7273   9.7273  13.1295
    13.4304  13.4304  15.2247  18.0658  20.8582  20.8582  24.0828  24.0828
    24.1940  26.3112

          k =-1.0000-0.5000 0.5000 (  2676 PWs)   bands (ev):

    -3.6932   0.7419   2.4732   4.8971   8.6722  11.0085  11.3610  12.3618
    12.6844  15.8538  18.8467  19.4109  19.6967  22.8936  23.2444  23.6486
    24.8996  27.4060

          k =-1.2500-0.2500 0.2500 (  2680 PWs)   bands (ev):

    -3.0196  -0.1599   2.6911   4.0199   7.7454  10.6756  11.9625  12.1429
    16.4288  16.7670  18.3834  18.9257  19.2586  23.0560  23.9331  24.8139
    25.5871  25.7931

          k =-1.5000 0.0000 0.0000 (  2682 PWs)   bands (ev):

    -4.6542   2.7040   4.3351   4.3351   7.3541   9.3590  11.9778  11.9778
    14.2741  15.1638  17.6596  19.2364  19.2364  19.9549  23.6386  23.6386
    24.5504  26.5531

          k =-0.5000-0.5000 1.0000 (  2676 PWs)   bands (ev):

    -3.6932   0.7419   2.4732   4.8971   8.6722  11.0085  11.3610  12.3618
    12.6844  15.8538  18.8467  19.4109  19.6967  22.8936  23.2444  23.6486
    24.8996  27.4060

          k =-0.7500-0.2500 0.7500 (  2680 PWs)   bands (ev):

    -3.0196  -0.1599   2.6911   4.0199   7.7454  10.6756  11.9625  12.1429
    16.4288  16.7670  18.3834  18.9257  19.2586  23.0560  23.9331  24.8139
    25.5871  25.7931

          k =-1.0000 0.0000 0.5000 (  2656 PWs)   bands (ev):

    -1.4305  -1.4305   2.3736   2.3736  10.5000  10.5000  11.2206  11.2206
    16.7977  16.7977  19.2578  19.2578  22.6678  22.6678  24.8239  24.8239
    25.0981  25.0981

          k =-1.2500 0.2500 0.2500 (  2680 PWs)   bands (ev):

    -3.0196  -0.1599   2.6911   4.0199   7.7454  10.6756  11.9625  12.1429
    16.4288  16.7670  18.3834  18.9257  19.2586  23.0560  23.9331  24.8139
    25.5871  25.7931

          k =-0.2500-0.2500 1.2500 (  2680 PWs)   bands (ev):

    -3.0196  -0.1599   2.6911   4.0199   7.7454  10.6756  11.9625  12.1429
    16.4288  16.7670  18.3834  18.9257  19.2586  23.0560  23.9331  24.8139
    25.5871  25.7931

          k =-0.5000 0.0000 1.0000 (  2656 PWs)   bands (ev):

    -1.4305  -1.4305   2.3736   2.3736  10.5000  10.5000  11.2206  11.2206
    16.7977  16.7977  19.2578  19.2578  22.6678  22.6678  24.8239  24.8239
    25.0981  25.0981

          k =-0.7500 0.2500 0.7500 (  2680 PWs)   bands (ev):

    -3.0196  -0.1599   2.6911   4.0199   7.7454  10.6756  11.9625  12.1429
    16.4288  16.7670  18.3834  18.9257  19.2586  23.0560  23.9331  24.8139
    25.5871  25.7931

          k =-1.0000 0.5000 0.5000 (  2676 PWs)   bands (ev):

    -3.6932   0.7419   2.4732   4.8971   8.6722  11.0085  11.3610  12.3618
    12.6844  15.8538  18.8467  19.4109  19.6967  22.8936  23.2444  23.6486
    24.8996  27.4060

          k = 0.0000 0.0000 1.5000 (  2682 PWs)   bands (ev):

    -4.6542   2.7040   4.3351   4.3351   7.3541   9.3590  11.9778  11.9778
    14.2741  15.1638  17.6596  19.2364  19.2364  19.9549  23.6386  23.6386
    24.5504  26.5531

          k =-0.2500 0.2500 1.2500 (  2680 PWs)   bands (ev):

    -3.0196  -0.1599   2.6911   4.0199   7.7454  10.6756  11.9625  12.1429
    16.4288  16.7670  18.3834  18.9257  19.2586  23.0560  23.9331  24.8139
    25.5871  25.7931

          k =-0.5000 0.5000 1.0000 (  2676 PWs)   bands (ev):

    -3.6932   0.7419   2.4732   4.8971   8.6722  11.0085  11.3610  12.3618
    12.6844  15.8538  18.8467  19.4109  19.6967  22.8936  23.2444  23.6486
    24.8996  27.4060

          k =-0.7500 0.7500 0.7500 (  2683 PWs)   bands (ev):

    -4.9363   2.2960   5.4655   5.4655   8.2448   9.7273   9.7273  13.1295
    13.4304  13.4304  15.2247  18.0658  20.8582  20.8582  24.0828  24.0828
    24.1940  26.3112

     Writing all to output data dir ./temp/si.save/
 
     init_run     :      0.06s CPU      0.08s WALL (       1 calls)
     electrons    :     14.50s CPU     14.81s WALL (       1 calls)

     Called by init_run:
     wfcinit      :      0.00s CPU      0.00s WALL (       1 calls)
     potinit      :      0.01s CPU      0.02s WALL (       1 calls)
     hinit0       :      0.02s CPU      0.02s WALL (       1 calls)

     Called by electrons:
     c_bands      :     14.50s CPU     14.81s WALL (       1 calls)
     v_of_rho     :      0.01s CPU      0.01s WALL (       1 calls)

     Called by c_bands:
     init_us_2    :      0.01s CPU      0.01s WALL (      64 calls)
     init_us_2:cp :      0.01s CPU      0.01s WALL (      64 calls)
     cegterg      :     13.98s CPU     14.28s WALL (     205 calls)

     Called by *egterg:
     cdiaghg      :      1.33s CPU      1.36s WALL (    3622 calls)
     h_psi        :     11.16s CPU     11.42s WALL (    3827 calls)
     g_psi        :      0.19s CPU      0.19s WALL (    3558 calls)

     Called by h_psi:
     h_psi:calbec :      0.37s CPU      0.38s WALL (    3827 calls)
     vloc_psi     :     10.48s CPU     10.72s WALL (    3827 calls)
     add_vuspsi   :      0.25s CPU      0.26s WALL (    3827 calls)

     General routines
     calbec       :      0.36s CPU      0.37s WALL (    3827 calls)
     fft          :      0.01s CPU      0.02s WALL (      11 calls)
     fftw         :      9.26s CPU      9.46s WALL (   74236 calls)
     davcio       :      0.01s CPU      0.01s WALL (     128 calls)
 
     Parallel routines
 
     PWSCF        :     14.87s CPU     15.31s WALL

 
   This run was terminated on:   4:34:27  25May2022            

=------------------------------------------------------------------------------=
   JOB DONE.
=------------------------------------------------------------------------------=
