MPI startup(): Warning: I_MPI_PMI_LIBRARY will be ignored since the hydra process manager was found
MPI startup(): Warning: I_MPI_PMI_LIBRARY will be ignored since the hydra process manager was found
MPI startup(): Warning: I_MPI_PMI_LIBRARY will be ignored since the hydra process manager was found
MPI startup(): Warning: I_MPI_PMI_LIBRARY will be ignored since the hydra process manager was found

     Program PWSCF v.7.0 starts on 25May2022 at  4:34: 1 

     This program is part of the open-source Quantum ESPRESSO suite
     for quantum simulation of materials; please cite
         "P. Giannozzi et al., J. Phys.:Condens. Matter 21 395502 (2009);
         "P. Giannozzi et al., J. Phys.:Condens. Matter 29 465901 (2017);
         "P. Giannozzi et al., J. Chem. Phys. 152 154105 (2020);
          URL http://www.quantum-espresso.org", 
     in publications or presentations arising from this work. More details at
     http://www.quantum-espresso.org/quote

     Parallel version (MPI & OpenMP), running on       4 processor cores
     Number of MPI processes:                 4
     Threads/MPI process:                     1

     MPI processes distributed on     1 nodes
     75927 MiB available memory on the printing compute node when the environment starts
 
     Reading input from scf.in

     Current dimensions of program PWSCF are:
     Max number of different atomic species (ntypx) = 10
     Max number of k-points (npk) =  40000
     Max angular momentum in pseudopotentials (lmaxx) =  4
 
     R & G space division:  proc/nbgrp/npool/nimage =       4
     Subspace diagonalization in iterative solution of the eigenvalue problem:
     a serial algorithm will be used

 
     Parallelization info
     --------------------
     sticks:   dense  smooth     PW     G-vecs:    dense   smooth      PW
     Min         256     256     77                 5385     5385     881
     Max         257     257     79                 5388     5388     882
     Sum        1027    1027    313                21547    21547    3527
 
     Using Slab Decomposition
 


     bravais-lattice index     =            2
     lattice parameter (alat)  =      10.2633  a.u.
     unit-cell volume          =     270.2704 (a.u.)^3
     number of atoms/cell      =            2
     number of atomic types    =            1
     number of electrons       =         8.00
     number of Kohn-Sham states=            4
     kinetic-energy cutoff     =      70.0000  Ry
     charge density cutoff     =     280.0000  Ry
     scf convergence threshold =      1.0E-15
     mixing beta               =       0.7000
     number of iterations used =            8  plain     mixing
     Exchange-correlation= PBE
                           (   1   4   3   4   0   0   0)

     celldm(1)=  10.263280  celldm(2)=   0.000000  celldm(3)=   0.000000
     celldm(4)=   0.000000  celldm(5)=   0.000000  celldm(6)=   0.000000

     crystal axes: (cart. coord. in units of alat)
               a(1) = (  -0.500000   0.000000   0.500000 )  
               a(2) = (   0.000000   0.500000   0.500000 )  
               a(3) = (  -0.500000   0.500000   0.000000 )  

     reciprocal axes: (cart. coord. in units 2 pi/alat)
               b(1) = ( -1.000000 -1.000000  1.000000 )  
               b(2) = (  1.000000  1.000000  1.000000 )  
               b(3) = ( -1.000000  1.000000 -1.000000 )  


     PseudoPot. # 1 for Si read from file:
     ~/PP/all/Si.dojo.sr.ONCVv0.4.pbe.standard.upf
     MD5 check sum: Not computed, couldn't open file
     Pseudo is Norm-conserving + core correction, Zval =  4.0
     Generated using ONCVPSP code by D. R. Hamann
     Using radial grid of 1510 points,  6 beta functions with: 
                l(1) =   0
                l(2) =   0
                l(3) =   1
                l(4) =   1
                l(5) =   2
                l(6) =   2

     atomic species   valence    mass     pseudopotential
        Si             4.00    28.08550     Si( 1.00)

     48 Sym. Ops., with inversion, found (36 have fractional translation)



   Cartesian axes

     site n.     atom                  positions (alat units)
         1           Si  tau(   1) = (  -0.1250000   0.1250000   0.1250000  )
         2           Si  tau(   2) = (   0.1250000  -0.1250000  -0.1250000  )

     number of k points=   104

     Number of k-points >= 100: set verbosity='high' to print them.

     Dense  grid:    21547 G-vectors     FFT dimensions: (  40,  40,  40)

     Estimated max dynamical RAM per process >       9.50 MB

     Estimated total dynamical RAM >      37.99 MB

     Initial potential from superposition of free atoms

     starting charge       7.9988, renormalised to       8.0000
     Starting wfcs are    8 randomized atomic wfcs

     total cpu time spent up to now is        0.6 secs

     Self-consistent Calculation

     iteration #  1     ecut=    70.00 Ry     beta= 0.70
     Davidson diagonalization with overlap
     ethr =  1.00E-02,  avg # of iterations =  2.0

     Threshold (ethr) on eigenvalues was too large:
     Diagonalizing with lowered threshold

     Davidson diagonalization with overlap
     ethr =  5.69E-04,  avg # of iterations =  2.0

     total cpu time spent up to now is        2.0 secs

     total energy              =     -16.92260336 Ry
     estimated scf accuracy    <       0.05365947 Ry

     iteration #  2     ecut=    70.00 Ry     beta= 0.70
     Davidson diagonalization with overlap
     ethr =  6.71E-04,  avg # of iterations =  1.0

     total cpu time spent up to now is        2.6 secs

     total energy              =     -16.92419326 Ry
     estimated scf accuracy    <       0.00289639 Ry

     iteration #  3     ecut=    70.00 Ry     beta= 0.70
     Davidson diagonalization with overlap
     ethr =  3.62E-05,  avg # of iterations =  2.3

     total cpu time spent up to now is        3.3 secs

     total energy              =     -16.92482758 Ry
     estimated scf accuracy    <       0.00006370 Ry

     iteration #  4     ecut=    70.00 Ry     beta= 0.70
     Davidson diagonalization with overlap
     ethr =  7.96E-07,  avg # of iterations =  4.9

     total cpu time spent up to now is        4.3 secs

     total energy              =     -16.92490915 Ry
     estimated scf accuracy    <       0.00000025 Ry

     iteration #  5     ecut=    70.00 Ry     beta= 0.70
     Davidson diagonalization with overlap
     ethr =  3.09E-09,  avg # of iterations =  6.6

     total cpu time spent up to now is        5.5 secs

     total energy              =     -16.92491080 Ry
     estimated scf accuracy    <       0.00000001 Ry

     iteration #  6     ecut=    70.00 Ry     beta= 0.70
     Davidson diagonalization with overlap
     ethr =  1.66E-10,  avg # of iterations =  3.1

     total cpu time spent up to now is        6.3 secs

     total energy              =     -16.92491080 Ry
     estimated scf accuracy    <          1.7E-09 Ry

     iteration #  7     ecut=    70.00 Ry     beta= 0.70
     Davidson diagonalization with overlap
     ethr =  2.15E-11,  avg # of iterations =  3.1

     total cpu time spent up to now is        7.1 secs

     total energy              =     -16.92491080 Ry
     estimated scf accuracy    <          2.2E-10 Ry

     iteration #  8     ecut=    70.00 Ry     beta= 0.70
     Davidson diagonalization with overlap
     ethr =  2.69E-12,  avg # of iterations =  2.6

     total cpu time spent up to now is        7.8 secs

     total energy              =     -16.92491080 Ry
     estimated scf accuracy    <          1.5E-13 Ry

     iteration #  9     ecut=    70.00 Ry     beta= 0.70
     Davidson diagonalization with overlap
     ethr =  1.00E-13,  avg # of iterations =  4.2

     total cpu time spent up to now is        8.7 secs

     total energy              =     -16.92491080 Ry
     estimated scf accuracy    <          8.1E-14 Ry

     iteration # 10     ecut=    70.00 Ry     beta= 0.70
     Davidson diagonalization with overlap
     ethr =  1.00E-13,  avg # of iterations =  1.0

     total cpu time spent up to now is        9.3 secs

     total energy              =     -16.92491080 Ry
     estimated scf accuracy    <          2.0E-14 Ry

     iteration # 11     ecut=    70.00 Ry     beta= 0.70
     Davidson diagonalization with overlap
     ethr =  1.00E-13,  avg # of iterations =  1.0

     total cpu time spent up to now is        9.8 secs

     End of self-consistent calculation

     Number of k-points >= 100: set verbosity='high' to print the bands.

     highest occupied level (ev):     6.2268

!    total energy              =     -16.92491080 Ry
     estimated scf accuracy    <          1.2E-16 Ry

     The total energy is the sum of the following terms:
     one-electron contribution =       4.95870922 Ry
     hartree contribution      =       1.09541216 Ry
     xc contribution           =      -6.18347196 Ry
     ewald contribution        =     -16.79556023 Ry

     convergence has been achieved in  11 iterations

     Forces acting on atoms (cartesian axes, Ry/au):

     atom    1 type  1   force =     0.00000000   -0.00000000    0.00000000
     atom    2 type  1   force =    -0.00000000    0.00000000   -0.00000000

     Total force =     0.000000     Total SCF correction =     0.000000


     Computing stress (Cartesian axis) and pressure

          total   stress  (Ry/bohr**3)                   (kbar)     P=       19.22
   0.00013062   0.00000000   0.00000000           19.22        0.00        0.00
   0.00000000   0.00013062  -0.00000000            0.00       19.22       -0.00
   0.00000000  -0.00000000   0.00013062            0.00       -0.00       19.22


     Writing all to output data dir ./temp/si.save/
 
     init_run     :      0.46s CPU      0.49s WALL (       1 calls)
     electrons    :      9.08s CPU      9.29s WALL (       1 calls)
     forces       :      0.18s CPU      0.18s WALL (       1 calls)
     stress       :      0.36s CPU      0.36s WALL (       1 calls)

     Called by init_run:
     wfcinit      :      0.38s CPU      0.40s WALL (       1 calls)
     potinit      :      0.02s CPU      0.02s WALL (       1 calls)
     hinit0       :      0.02s CPU      0.03s WALL (       1 calls)

     Called by electrons:
     c_bands      :      7.94s CPU      8.14s WALL (      12 calls)
     sum_band     :      1.04s CPU      1.06s WALL (      12 calls)
     v_of_rho     :      0.09s CPU      0.09s WALL (      12 calls)
     mix_rho      :      0.01s CPU      0.01s WALL (      12 calls)

     Called by c_bands:
     init_us_2    :      0.48s CPU      0.49s WALL (    2808 calls)
     init_us_2:cp :      0.47s CPU      0.49s WALL (    2808 calls)
     cegterg      :      5.80s CPU      5.95s WALL (    1248 calls)

     Called by *egterg:
     cdiaghg      :      0.16s CPU      0.16s WALL (    4665 calls)
     h_psi        :      5.40s CPU      5.55s WALL (    4873 calls)
     g_psi        :      0.06s CPU      0.07s WALL (    3521 calls)

     Called by h_psi:
     h_psi:calbec :      0.30s CPU      0.31s WALL (    4873 calls)
     vloc_psi     :      4.88s CPU      5.01s WALL (    4873 calls)
     add_vuspsi   :      0.18s CPU      0.19s WALL (    4873 calls)

     General routines
     calbec       :      0.37s CPU      0.38s WALL (    5393 calls)
     fft          :      0.04s CPU      0.05s WALL (     145 calls)
     ffts         :      0.00s CPU      0.00s WALL (      12 calls)
     fftw         :      4.98s CPU      5.11s WALL (   38098 calls)
 
     Parallel routines
 
     PWSCF        :     10.18s CPU     10.49s WALL

 
   This run was terminated on:   4:34:12  25May2022            

=------------------------------------------------------------------------------=
   JOB DONE.
=------------------------------------------------------------------------------=
