File written on 25May2022 at 02:28:09 

calc_only_A  :  F

begin real_lattice
  21.1670883   0.0000000   0.0000000
   0.0000000  21.1670883   0.0000000
   0.0000000   0.0000000  21.1670883
end real_lattice

begin recip_lattice
   0.2968375   0.0000000   0.0000000
   0.0000000   0.2968375   0.0000000
   0.0000000   0.0000000   0.2968375
end recip_lattice

begin kpoints
     1
    0.00000000    0.00000000    0.00000000
end kpoints

begin projections
     8
   0.00000    0.00000    0.00000     0  1  1
    0.0000000  0.0000000  1.0000000   1.0000000  0.0000000  0.0000000    1.00
   0.50000    0.00000    0.00000     0  1  1
    0.0000000  0.0000000  1.0000000   1.0000000  0.0000000  0.0000000    1.00
   0.00000    0.50000    0.00000     0  1  1
    0.0000000  0.0000000  1.0000000   1.0000000  0.0000000  0.0000000    1.00
   0.50000    0.50000    0.00000     0  1  1
    0.0000000  0.0000000  1.0000000   1.0000000  0.0000000  0.0000000    1.00
   0.00000    0.00000    0.50000     0  1  1
    0.0000000  0.0000000  1.0000000   1.0000000  0.0000000  0.0000000    1.00
   0.50000    0.00000    0.50000     0  1  1
    0.0000000  0.0000000  1.0000000   1.0000000  0.0000000  0.0000000    1.00
   0.00000    0.50000    0.50000     0  1  1
    0.0000000  0.0000000  1.0000000   1.0000000  0.0000000  0.0000000    1.00
   0.50000    0.50000    0.50000     0  1  1
    0.0000000  0.0000000  1.0000000   1.0000000  0.0000000  0.0000000    1.00
end projections

begin nnkpts
   6
     1     1      1   0   0
     1     1      0   1   0
     1     1      0   0   1
     1     1      0   0  -1
     1     1      0  -1   0
     1     1     -1   0   0
end nnkpts

begin exclude_bands
   0
end exclude_bands
